PROCAR new format
# of k-points:   10         # of bands:  252         # of ions:   39

 k-point     1 :    0.00000000 0.00000000 0.00000000     weight = 0.01562500

band     1 # energy  -23.27743834 # occ.  2.00000000
 
ion      s      p      d    tot
    1  0.000  0.000  0.000  0.000
    2  0.000  0.000  0.000  0.000
    3  0.000  0.000  0.000  0.000
    4  0.000  0.000  0.000  0.000
    5  0.000  0.000  0.000  0.000
    6  0.000  0.000  0.000  0.000
    7  0.000  0.000  0.000  0.000
    8  0.000  0.000  0.000  0.000
    9  0.000  0.000  0.000  0.000
   10  0.000  0.000  0.000  0.000
   11  0.000  0.000  0.000  0.000
   12  0.000  0.000  0.000  0.000
   13  0.000  0.000  0.000  0.000
   14  0.000  0.000  0.000  0.000
   15  0.000  0.000  0.000  0.000
   16  0.000  0.000  0.000  0.000
   17  0.000  0.000  0.000  0.000
   18  0.000  0.000  0.000  0.000
   19  0.000  0.000  0.000  0.000
   20  0.000  0.000  0.000  0.000
   21  0.000  0.000  0.000  0.000
   22  0.000  0.000  0.000  0.000
   23  0.000  0.000  0.000  0.000
   24  0.000  0.000  0.000  0.000
   25  0.000  0.000  0.000  0.000
   26  0.000  0.000  0.000  0.000
   27  0.000  0.000  0.000  0.000
   28  0.000  0.000  0.000  0.000
   29  0.000  0.000  0.000  0.000
   30  0.000  0.000  0.000  0.000
   31  0.000  0.000  0.000  0.000
   32  0.000  0.000  0.000  0.000
   33  0.000  0.000  0.000  0.000
   34  0.000  0.000  0.000  0.000
   35  0.000  0.000  0.000  0.000
   36  0.000  0.000  0.000  0.000
   37  0.071  0.052  0.000  0.123
   38  0.727  0.005  0.000  0.731
   39  0.067  0.014  0.000  0.081
tot    0.865  0.071  0.000  0.936
 
band     2 # energy  -14.05166132 # occ.  2.00000000
 
ion      s      p      d    tot
    1  0.000  0.000  0.000  0.000
    2  0.000  0.000  0.000  0.000
    3  0.000  0.000  0.000  0.000
    4  0.000  0.000  0.000  0.000
    5  0.000  0.000  0.000  0.000
    6  0.000  0.000  0.000  0.000
    7  0.000  0.000  0.000  0.000
    8  0.000  0.000  0.000  0.000
    9  0.000  0.000  0.000  0.000
   10  0.000  0.000  0.000  0.000
   11  0.000  0.000  0.000  0.000
   12  0.000  0.000  0.000  0.000
   13  0.000  0.000  0.000  0.000
   14  0.000  0.000  0.000  0.000
   15  0.000  0.000  0.000  0.000
   16  0.000  0.000  0.000  0.000
   17  0.000  0.000  0.000  0.000
   18  0.000  0.000  0.000  0.000
   19  0.000  0.000  0.000  0.000
   20  0.000  0.000  0.000  0.000
   21  0.000  0.000  0.000  0.000
   22  0.000  0.000  0.000  0.000
   23  0.000  0.000  0.000  0.000
   24  0.000  0.000  0.000  0.000
   25  0.000  0.000  0.000  0.000
   26  0.000  0.000  0.000  0.000
   27  0.000  0.000  0.000  0.000
   28  0.000  0.000  0.000  0.000
   29  0.000  0.000  0.000  0.000
   30  0.000  0.000  0.000  0.000
   31  0.000  0.000  0.000  0.000
   32  0.000  0.000  0.000  0.000
   33  0.000  0.000  0.000  0.000
   34  0.000  0.000  0.000  0.000
   35  0.000  0.000  0.000  0.000
   36  0.003  0.003  0.003  0.008
   37  0.157  0.052  0.000  0.209
   38  0.013  0.521  0.000  0.535
   39  0.201  0.032  0.000  0.233
tot    0.374  0.608  0.003  0.985
 
band     3 # energy   -6.83358133 # occ.  2.00000000
 
ion      s      p      d    tot
    1  0.004  0.000  0.000  0.004
    2  0.004  0.000  0.000  0.004
    3  0.004  0.000  0.000  0.004
    4  0.004  0.000  0.000  0.004
    5  0.004  0.000  0.000  0.004
    6  0.004  0.000  0.000  0.004
    7  0.004  0.000  0.000  0.004
    8  0.004  0.000  0.000  0.004
    9  0.004  0.000  0.000  0.004
   10  0.017  0.000  0.000  0.017
   11  0.016  0.000  0.000  0.017
   12  0.017  0.000  0.000  0.017
   13  0.016  0.000  0.000  0.017
   14  0.016  0.000  0.000  0.017
   15  0.015  0.000  0.000  0.015
   16  0.017  0.000  0.000  0.017
   17  0.015  0.000  0.000  0.015
   18  0.015  0.000  0.000  0.015
   19  0.019  0.000  0.000  0.019
   20  0.026  0.000  0.002  0.027
   21  0.026  0.000  0.002  0.027
   22  0.018  0.000  0.000  0.018
   23  0.026  0.000  0.002  0.027
   24  0.018  0.000  0.000  0.018
   25  0.019  0.000  0.000  0.019
   26  0.019  0.000  0.000  0.019
   27  0.018  0.000  0.000  0.018
   28  0.006  0.000  0.000  0.006
   29  0.008  0.000  0.001  0.009
   30  0.008  0.000  0.001  0.009
   31  0.008  0.000  0.001  0.009
   32  0.008  0.000  0.001  0.009
   33  0.008  0.000  0.001  0.009
   34  0.008  0.000  0.001  0.009
   35  0.005  0.000  0.000  0.006
   36  0.057  0.006  0.026  0.089
   37  0.033  0.029  0.000  0.061
   38  0.003  0.010  0.000  0.013
   39  0.003  0.000  0.000  0.003
tot    0.518  0.054  0.038  0.610
 
band     4 # energy   -6.39101827 # occ.  2.00000000
 
ion      s      p      d    tot
    1  0.004  0.000  0.000  0.004
    2  0.004  0.000  0.000  0.005
    3  0.004  0.000  0.000  0.005
    4  0.004  0.000  0.000  0.005
    5  0.005  0.000  0.000  0.005
    6  0.004  0.000  0.000  0.005
    7  0.004  0.000  0.000  0.005
    8  0.004  0.000  0.000  0.005
    9  0.005  0.000  0.000  0.005
   10  0.009  0.000  0.002  0.011
   11  0.011  0.000  0.001  0.012
   12  0.009  0.000  0.002  0.011
   13  0.011  0.000  0.001  0.012
   14  0.011  0.000  0.001  0.012
   15  0.012  0.000  0.001  0.013
   16  0.009  0.000  0.002  0.011
   17  0.012  0.000  0.001  0.013
   18  0.012  0.000  0.001  0.013
   19  0.002  0.000  0.001  0.003
   20  0.000  0.002  0.009  0.010
   21  0.000  0.002  0.009  0.010
   22  0.003  0.000  0.000  0.004
   23  0.000  0.002  0.009  0.010
   24  0.003  0.000  0.000  0.004
   25  0.002  0.000  0.001  0.003
   26  0.002  0.000  0.001  0.003
   27  0.003  0.000  0.000  0.004
   28  0.000  0.000  0.001  0.001
   29  0.001  0.001  0.006  0.008
   30  0.001  0.001  0.005  0.008
   31  0.001  0.001  0.006  0.008
   32  0.001  0.001  0.005  0.008
   33  0.001  0.001  0.005  0.008
   34  0.001  0.001  0.005  0.008
   35  0.000  0.000  0.001  0.001
   36  0.107  0.050  0.101  0.258
   37  0.124  0.101  0.000  0.225
   38  0.010  0.033  0.000  0.043
   39  0.010  0.001  0.000  0.010
tot    0.416  0.199  0.174  0.789
 
band     5 # energy   -6.10567356 # occ.  2.00000000
 
ion      s      p      d    tot
    1  0.000  0.000  0.000  0.000
    2  0.000  0.000  0.000  0.000
    3  0.000  0.000  0.000  0.000
    4  0.000  0.000  0.000  0.000
    5  0.000  0.000  0.000  0.000
    6  0.000  0.000  0.000  0.000
    7  0.000  0.000  0.000  0.000
    8  0.000  0.000  0.000  0.000
    9  0.000  0.000  0.000  0.000
   10  0.000  0.000  0.000  0.000
   11  0.000  0.000  0.000  0.000
   12  0.000  0.000  0.000  0.000
   13  0.000  0.000  0.000  0.000
   14  0.000  0.000  0.000  0.000
   15  0.000  0.000  0.000  0.000
   16  0.000  0.000  0.000  0.000
   17  0.000  0.000  0.000  0.000
   18  0.000  0.000  0.000  0.000
   19  0.000  0.000  0.000  0.000
   20  0.000  0.000  0.000  0.000
   21  0.000  0.000  0.000  0.000
   22  0.000  0.000  0.000  0.000
   23  0.000  0.000  0.000  0.000
   24  0.000  0.000  0.000  0.000
   25  0.000  0.000  0.000  0.000
   26  0.000  0.000  0.000  0.000
   27  0.000  0.000  0.000  0.000
   28  0.000  0.000  0.000  0.000
   29  0.001  0.000  0.002  0.002
   30  0.000  0.000  0.001  0.001
   31  0.001  0.000  0.002  0.002
   32  0.001  0.000  0.002  0.002
   33  0.000  0.000  0.001  0.001
   34  0.001  0.000  0.002  0.002
   35  0.000  0.000  0.000  0.000
   36  0.000  0.003  0.012  0.015
   37  0.000  0.105  0.000  0.105
   38  0.000  0.533  0.000  0.533
   39  0.000  0.008  0.000  0.008
tot    0.002  0.650  0.021  0.674
 
band     6 # energy   -6.10550182 # occ.  2.00000000
 
ion      s      p      d    tot
    1  0.000  0.000  0.000  0.000
    2  0.000  0.000  0.000  0.000
    3  0.000  0.000  0.000  0.000
    4  0.000  0.000  0.000  0.000
    5  0.000  0.000  0.000  0.000
    6  0.000  0.000  0.000  0.000
    7  0.000  0.000  0.000  0.000
    8  0.000  0.000  0.000  0.000
    9  0.000  0.000  0.000  0.000
   10  0.000  0.000  0.000  0.000
   11  0.000  0.000  0.000  0.000
   12  0.000  0.000  0.000  0.000
   13  0.000  0.000  0.000  0.000
   14  0.000  0.000  0.000  0.000
   15  0.000  0.000  0.000  0.000
   16  0.000  0.000  0.000  0.000
   17  0.000  0.000  0.000  0.000
   18  0.000  0.000  0.000  0.000
   19  0.000  0.000  0.000  0.000
   20  0.000  0.000  0.000  0.000
   21  0.000  0.000  0.000  0.000
   22  0.000  0.000  0.000  0.000
   23  0.000  0.000  0.000  0.000
   24  0.000  0.000  0.000  0.000
   25  0.000  0.000  0.000  0.000
   26  0.000  0.000  0.000  0.000
   27  0.000  0.000  0.000  0.000
   28  0.000  0.000  0.000  0.000
   29  0.000  0.000  0.001  0.001
   30  0.001  0.000  0.002  0.003
   31  0.000  0.000  0.001  0.001
   32  0.000  0.000  0.001  0.001
   33  0.001  0.000  0.002  0.003
   34  0.000  0.000  0.001  0.001
   35  0.000  0.000  0.000  0.000
   36  0.000  0.003  0.012  0.016
   37  0.000  0.105  0.000  0.105
   38  0.000  0.533  0.000  0.533
   39  0.000  0.008  0.000  0.008
tot    0.002  0.650  0.021  0.674
 
band     7 # energy   -5.82792084 # occ.  2.00000000
 
ion      s      p      d    tot
    1  0.006  0.000  0.000  0.006
    2  0.004  0.000  0.000  0.005
    3  0.004  0.000  0.000  0.005
    4  0.004  0.000  0.000  0.005
    5  0.004  0.000  0.000  0.004
    6  0.004  0.000  0.000  0.005
    7  0.004  0.000  0.000  0.005
    8  0.004  0.000  0.000  0.005
    9  0.004  0.000  0.000  0.004
   10  0.010  0.001  0.016  0.026
   11  0.007  0.001  0.019  0.027
   12  0.010  0.001  0.016  0.026
   13  0.007  0.001  0.019  0.027
   14  0.007  0.001  0.019  0.027
   15  0.006  0.001  0.016  0.023
   16  0.010  0.001  0.016  0.026
   17  0.006  0.001  0.016  0.023
   18  0.006  0.001  0.016  0.023
   19  0.014  0.001  0.024  0.038
   20  0.010  0.000  0.036  0.047
   21  0.010  0.000  0.036  0.047
   22  0.016  0.000  0.021  0.038
   23  0.010  0.000  0.036  0.047
   24  0.016  0.000  0.021  0.038
   25  0.014  0.001  0.024  0.038
   26  0.014  0.001  0.024  0.038
   27  0.016  0.000  0.021  0.038
   28  0.004  0.000  0.001  0.005
   29  0.002  0.001  0.002  0.005
   30  0.002  0.001  0.002  0.005
   31  0.002  0.001  0.002  0.005
   32  0.002  0.001  0.002  0.005
   33  0.002  0.001  0.002  0.005
   34  0.002  0.001  0.002  0.005
   35  0.004  0.001  0.001  0.005
   36  0.004  0.007  0.008  0.019
   37  0.011  0.008  0.000  0.019
   38  0.001  0.002  0.000  0.003
   39  0.001  0.000  0.000  0.001
tot    0.266  0.036  0.420  0.722
 
band     8 # energy   -5.56777335 # occ.  2.00000000
 
ion      s      p      d    tot
    1  0.023  0.000  0.025  0.047
    2  0.017  0.000  0.027  0.044
    3  0.017  0.000  0.027  0.044
    4  0.017  0.000  0.027  0.044
    5  0.014  0.000  0.027  0.042
    6  0.017  0.000  0.027  0.044
    7  0.017  0.000  0.027  0.044
    8  0.017  0.000  0.027  0.044
    9  0.015  0.000  0.027  0.042
   10  0.000  0.000  0.027  0.027
   11  0.001  0.001  0.016  0.017
   12  0.000  0.000  0.027  0.027
   13  0.001  0.001  0.016  0.017
   14  0.001  0.001  0.016  0.017
   15  0.001  0.001  0.015  0.017
   16  0.000  0.000  0.027  0.027
   17  0.001  0.001  0.015  0.017
   18  0.001  0.001  0.015  0.017
   19  0.000  0.000  0.007  0.007
   20  0.000  0.000  0.013  0.013
   21  0.000  0.000  0.013  0.013
   22  0.002  0.000  0.005  0.007
   23  0.000  0.000  0.013  0.013
   24  0.002  0.000  0.005  0.007
   25  0.000  0.000  0.007  0.007
   26  0.000  0.000  0.007  0.007
   27  0.002  0.000  0.005  0.007
   28  0.006  0.000  0.003  0.009
   29  0.004  0.000  0.005  0.010
   30  0.004  0.000  0.005  0.010
   31  0.004  0.000  0.005  0.010
   32  0.004  0.000  0.005  0.010
   33  0.004  0.000  0.005  0.010
   34  0.004  0.000  0.005  0.010
   35  0.009  0.000  0.004  0.012
   36  0.000  0.000  0.007  0.008
   37  0.002  0.002  0.000  0.004
   38  0.000  0.000  0.000  0.000
   39  0.000  0.000  0.000  0.000
tot    0.210  0.011  0.531  0.753
 
band     9 # energy   -5.48087131 # occ.  2.00000000
 
ion      s      p      d    tot
    1  0.000  0.000  0.004  0.004
    2  0.001  0.000  0.006  0.007
    3  0.001  0.000  0.006  0.007
    4  0.001  0.000  0.006  0.007
    5  0.003  0.000  0.004  0.007
    6  0.001  0.000  0.006  0.007
    7  0.001  0.000  0.006  0.007
    8  0.001  0.000  0.006  0.007
    9  0.002  0.000  0.000  0.003
   10  0.001  0.000  0.016  0.018
   11  0.003  0.001  0.024  0.028
   12  0.001  0.000  0.017  0.018
   13  0.003  0.001  0.024  0.028
   14  0.003  0.001  0.025  0.028
   15  0.003  0.000  0.025  0.029
   16  0.001  0.000  0.017  0.018
   17  0.003  0.000  0.025  0.029
   18  0.003  0.000  0.025  0.029
   19  0.002  0.001  0.034  0.037
   20  0.008  0.000  0.093  0.101
   21  0.008  0.000  0.093  0.101
   22  0.010  0.001  0.015  0.025
   23  0.008  0.000  0.093  0.101
   24  0.009  0.001  0.015  0.026
   25  0.002  0.001  0.033  0.036
   26  0.002  0.001  0.034  0.036
   27  0.010  0.001  0.015  0.025
   28  0.000  0.000  0.000  0.000
   29  0.000  0.000  0.006  0.006
   30  0.000  0.000  0.006  0.006
   31  0.000  0.000  0.006  0.006
   32  0.000  0.000  0.006  0.006
   33  0.000  0.000  0.006  0.006
   34  0.000  0.000  0.006  0.006
   35  0.002  0.001  0.002  0.004
   36  0.000  0.005  0.000  0.005
   37  0.002  0.001  0.000  0.003
   38  0.000  0.001  0.000  0.001
   39  0.000  0.000  0.000  0.000
tot    0.098  0.019  0.702  0.818
 
band    10 # energy   -5.47921922 # occ.  2.00000000
 
ion      s      p      d    tot
    1  0.000  0.000  0.009  0.009
    2  0.001  0.000  0.002  0.003
    3  0.001  0.000  0.003  0.004
    4  0.001  0.000  0.002  0.003
    5  0.000  0.000  0.003  0.003
    6  0.000  0.000  0.003  0.003
    7  0.001  0.000  0.003  0.004
    8  0.000  0.000  0.003  0.003
    9  0.000  0.000  0.002  0.002
   10  0.000  0.001  0.021  0.022
   11  0.001  0.000  0.026  0.027
   12  0.009  0.001  0.018  0.028
   13  0.001  0.000  0.026  0.027
   14  0.000  0.001  0.022  0.022
   15  0.005  0.000  0.012  0.017
   16  0.009  0.001  0.018  0.028
   17  0.004  0.000  0.013  0.018
   18  0.000  0.000  0.026  0.026
   19  0.018  0.001  0.034  0.053
   20  0.000  0.000  0.155  0.155
   21  0.016  0.000  0.045  0.062
   22  0.000  0.001  0.035  0.036
   23  0.017  0.000  0.042  0.059
   24  0.000  0.001  0.038  0.040
   25  0.000  0.001  0.030  0.032
   26  0.018  0.001  0.034  0.052
   27  0.000  0.000  0.035  0.036
   28  0.000  0.000  0.005  0.006
   29  0.000  0.000  0.006  0.007
   30  0.000  0.000  0.002  0.002
   31  0.000  0.000  0.007  0.007
   32  0.001  0.001  0.005  0.007
   33  0.000  0.000  0.002  0.002
   34  0.001  0.001  0.005  0.006
   35  0.000  0.000  0.000  0.000
   36  0.000  0.001  0.002  0.002
   37  0.000  0.000  0.000  0.000
   38  0.000  0.001  0.000  0.001
   39  0.000  0.000  0.000  0.000
tot    0.105  0.015  0.695  0.815
 
band    11 # energy   -5.47919479 # occ.  2.00000000
 
ion      s      p      d    tot
    1  0.000  0.000  0.009  0.009
    2  0.001  0.000  0.003  0.004
    3  0.000  0.000  0.002  0.003
    4  0.001  0.000  0.003  0.004
    5  0.000  0.000  0.003  0.003
    6  0.001  0.000  0.003  0.004
    7  0.000  0.000  0.002  0.003
    8  0.001  0.000  0.003  0.004
    9  0.000  0.000  0.002  0.002
   10  0.012  0.001  0.017  0.030
   11  0.000  0.001  0.023  0.024
   12  0.003  0.001  0.020  0.024
   13  0.000  0.001  0.023  0.024
   14  0.001  0.000  0.027  0.028
   15  0.001  0.000  0.022  0.024
   16  0.003  0.001  0.020  0.024
   17  0.002  0.000  0.022  0.023
   18  0.006  0.001  0.008  0.014
   19  0.006  0.001  0.031  0.038
   20  0.022  0.001  0.007  0.029
   21  0.006  0.000  0.116  0.122
   22  0.000  0.001  0.037  0.039
   23  0.005  0.000  0.119  0.125
   24  0.000  0.000  0.034  0.034
   25  0.024  0.000  0.036  0.060
   26  0.006  0.001  0.031  0.039
   27  0.000  0.001  0.038  0.039
   28  0.000  0.000  0.005  0.006
   29  0.001  0.000  0.002  0.003
   30  0.001  0.001  0.007  0.009
   31  0.001  0.000  0.002  0.003
   32  0.000  0.000  0.004  0.004
   33  0.001  0.001  0.007  0.009
   34  0.000  0.000  0.004  0.004
   35  0.000  0.000  0.000  0.000
   36  0.000  0.001  0.002  0.002
   37  0.000  0.000  0.000  0.000
   38  0.000  0.001  0.000  0.001
   39  0.000  0.000  0.000  0.000
tot    0.105  0.015  0.695  0.815
 
band    12 # energy   -5.46842233 # occ.  2.00000000
 
ion      s      p      d    tot
    1  0.000  0.000  0.003  0.003
    2  0.000  0.000  0.002  0.002
    3  0.001  0.000  0.005  0.007
    4  0.000  0.000  0.002  0.002
    5  0.000  0.000  0.009  0.009
    6  0.001  0.001  0.004  0.006
    7  0.001  0.000  0.005  0.007
    8  0.001  0.001  0.004  0.006
    9  0.000  0.000  0.003  0.003
   10  0.004  0.001  0.018  0.022
   11  0.008  0.001  0.061  0.069
   12  0.001  0.000  0.062  0.063
   13  0.007  0.001  0.062  0.070
   14  0.029  0.001  0.011  0.041
   15  0.003  0.001  0.015  0.019
   16  0.001  0.000  0.061  0.062
   17  0.002  0.001  0.015  0.019
   18  0.010  0.000  0.036  0.046
   19  0.001  0.000  0.037  0.038
   20  0.011  0.000  0.037  0.049
   21  0.003  0.001  0.025  0.028
   22  0.005  0.000  0.039  0.044
   23  0.003  0.001  0.025  0.029
   24  0.019  0.001  0.008  0.029
   25  0.002  0.000  0.015  0.017
   26  0.000  0.000  0.038  0.039
   27  0.005  0.000  0.038  0.043
   28  0.000  0.000  0.001  0.001
   29  0.001  0.000  0.004  0.006
   30  0.000  0.000  0.002  0.003
   31  0.001  0.000  0.004  0.006
   32  0.001  0.000  0.002  0.003
   33  0.000  0.000  0.003  0.003
   34  0.001  0.000  0.002  0.003
   35  0.000  0.000  0.007  0.007
   36  0.000  0.000  0.001  0.001
   37  0.000  0.000  0.000  0.000
   38  0.000  0.000  0.000  0.000
   39  0.000  0.000  0.000  0.000
tot    0.121  0.017  0.666  0.804
 
band    13 # energy   -5.46841767 # occ.  2.00000000
 
ion      s      p      d    tot
    1  0.000  0.000  0.003  0.003
    2  0.002  0.001  0.006  0.008
    3  0.000  0.000  0.003  0.003
    4  0.002  0.001  0.006  0.008
    5  0.000  0.000  0.009  0.009
    6  0.000  0.000  0.004  0.004
    7  0.000  0.000  0.003  0.003
    8  0.000  0.000  0.004  0.004
    9  0.000  0.000  0.003  0.003
   10  0.000  0.000  0.076  0.076
   11  0.022  0.001  0.028  0.051
   12  0.003  0.000  0.031  0.035
   13  0.022  0.001  0.027  0.050
   14  0.000  0.001  0.079  0.079
   15  0.008  0.001  0.028  0.037
   16  0.003  0.000  0.033  0.036
   17  0.008  0.001  0.029  0.037
   18  0.000  0.002  0.008  0.010
   19  0.001  0.000  0.023  0.024
   20  0.000  0.001  0.021  0.022
   21  0.008  0.001  0.033  0.042
   22  0.015  0.001  0.018  0.033
   23  0.008  0.001  0.033  0.042
   24  0.000  0.000  0.048  0.049
   25  0.000  0.000  0.045  0.046
   26  0.001  0.000  0.022  0.024
   27  0.014  0.001  0.019  0.034
   28  0.000  0.000  0.001  0.001
   29  0.000  0.000  0.002  0.002
   30  0.001  0.000  0.003  0.005
   31  0.000  0.000  0.002  0.002
   32  0.001  0.000  0.004  0.005
   33  0.001  0.000  0.003  0.005
   34  0.001  0.000  0.004  0.005
   35  0.000  0.000  0.007  0.007
   36  0.000  0.000  0.001  0.001
   37  0.000  0.000  0.000  0.000
   38  0.000  0.000  0.000  0.000
   39  0.000  0.000  0.000  0.000
tot    0.121  0.017  0.667  0.804
 
band    14 # energy   -5.46503106 # occ.  2.00000000
 
ion      s      p      d    tot
    1  0.000  0.000  0.001  0.001
    2  0.000  0.000  0.006  0.007
    3  0.000  0.000  0.006  0.007
    4  0.000  0.000  0.006  0.007
    5  0.007  0.001  0.001  0.009
    6  0.000  0.000  0.006  0.007
    7  0.000  0.000  0.006  0.007
    8  0.000  0.000  0.006  0.007
    9  0.001  0.000  0.004  0.006
   10  0.008  0.001  0.005  0.014
   11  0.011  0.000  0.034  0.045
   12  0.008  0.001  0.005  0.014
   13  0.011  0.000  0.034  0.045
   14  0.011  0.000  0.033  0.044
   15  0.001  0.000  0.040  0.041
   16  0.008  0.001  0.005  0.014
   17  0.001  0.000  0.040  0.041
   18  0.001  0.000  0.039  0.040
   19  0.016  0.001  0.024  0.042
   20  0.004  0.001  0.018  0.024
   21  0.004  0.001  0.019  0.024
   22  0.001  0.000  0.064  0.066
   23  0.004  0.001  0.019  0.024
   24  0.001  0.000  0.064  0.066
   25  0.016  0.001  0.024  0.042
   26  0.016  0.001  0.024  0.042
   27  0.001  0.000  0.064  0.066
   28  0.004  0.001  0.006  0.011
   29  0.000  0.000  0.004  0.005
   30  0.000  0.000  0.004  0.005
   31  0.000  0.000  0.004  0.005
   32  0.000  0.000  0.004  0.005
   33  0.000  0.000  0.004  0.005
   34  0.000  0.000  0.004  0.005
   35  0.002  0.001  0.005  0.008
   36  0.001  0.000  0.000  0.001
   37  0.000  0.000  0.000  0.000
   38  0.000  0.000  0.000  0.000
   39  0.000  0.000  0.000  0.000
tot    0.141  0.018  0.636  0.795
 
band    15 # energy   -5.44812158 # occ.  2.00000000
 
ion      s      p      d    tot
    1  0.000  0.001  0.024  0.024
    2  0.001  0.000  0.008  0.009
    3  0.001  0.000  0.008  0.009
    4  0.001  0.000  0.008  0.009
    5  0.000  0.000  0.001  0.001
    6  0.001  0.000  0.008  0.009
    7  0.001  0.000  0.008  0.009
    8  0.001  0.000  0.008  0.009
    9  0.009  0.001  0.000  0.010
   10  0.006  0.000  0.078  0.084
   11  0.001  0.000  0.054  0.055
   12  0.006  0.000  0.078  0.084
   13  0.001  0.000  0.054  0.055
   14  0.001  0.000  0.054  0.055
   15  0.008  0.001  0.004  0.012
   16  0.006  0.000  0.078  0.084
   17  0.008  0.001  0.004  0.012
   18  0.008  0.001  0.004  0.012
   19  0.000  0.000  0.016  0.017
   20  0.002  0.000  0.024  0.027
   21  0.002  0.000  0.025  0.027
   22  0.000  0.000  0.021  0.021
   23  0.002  0.000  0.025  0.027
   24  0.000  0.000  0.021  0.021
   25  0.000  0.000  0.016  0.017
   26  0.000  0.000  0.016  0.017
   27  0.000  0.000  0.021  0.021
   28  0.008  0.000  0.003  0.011
   29  0.001  0.000  0.011  0.012
   30  0.001  0.000  0.011  0.012
   31  0.001  0.000  0.011  0.012
   32  0.001  0.000  0.011  0.012
   33  0.001  0.000  0.011  0.012
   34  0.001  0.000  0.011  0.012
   35  0.001  0.000  0.008  0.009
   36  0.001  0.001  0.000  0.002
   37  0.000  0.000  0.000  0.000
   38  0.000  0.000  0.000  0.000
   39  0.000  0.000  0.000  0.000
tot    0.083  0.010  0.740  0.832
 
band    16 # energy   -5.42857126 # occ.  2.00000000
 
ion      s      p      d    tot
    1  0.000  0.000  0.014  0.014
    2  0.002  0.001  0.010  0.012
    3  0.003  0.001  0.005  0.009
    4  0.001  0.001  0.010  0.012
    5  0.000  0.000  0.007  0.007
    6  0.000  0.000  0.009  0.009
    7  0.003  0.001  0.005  0.009
    8  0.001  0.000  0.008  0.009
    9  0.000  0.001  0.008  0.009
   10  0.018  0.000  0.030  0.048
   11  0.000  0.000  0.025  0.025
   12  0.006  0.000  0.049  0.055
   13  0.000  0.000  0.028  0.028
   14  0.000  0.000  0.043  0.043
   15  0.003  0.000  0.098  0.102
   16  0.003  0.000  0.053  0.057
   17  0.005  0.000  0.083  0.089
   18  0.017  0.000  0.004  0.021
   19  0.000  0.000  0.029  0.029
   20  0.002  0.000  0.011  0.014
   21  0.001  0.000  0.025  0.026
   22  0.001  0.000  0.020  0.021
   23  0.000  0.000  0.027  0.028
   24  0.003  0.000  0.022  0.025
   25  0.000  0.001  0.023  0.023
   26  0.000  0.000  0.028  0.028
   27  0.001  0.000  0.020  0.020
   28  0.000  0.000  0.013  0.013
   29  0.002  0.000  0.004  0.006
   30  0.000  0.000  0.005  0.005
   31  0.002  0.000  0.004  0.007
   32  0.003  0.000  0.004  0.007
   33  0.000  0.000  0.005  0.005
   34  0.002  0.000  0.004  0.007
   35  0.000  0.000  0.006  0.006
   36  0.000  0.000  0.001  0.001
   37  0.000  0.000  0.000  0.000
   38  0.000  0.000  0.000  0.000
   39  0.000  0.000  0.000  0.000
tot    0.080  0.011  0.740  0.830
 
band    17 # energy   -5.42856712 # occ.  2.00000000
 
ion      s      p      d    tot
    1  0.000  0.000  0.014  0.014
    2  0.002  0.000  0.006  0.008
    3  0.000  0.000  0.011  0.011
    4  0.002  0.000  0.005  0.008
    5  0.000  0.000  0.007  0.007
    6  0.003  0.001  0.007  0.011
    7  0.000  0.000  0.011  0.012
    8  0.003  0.001  0.007  0.011
    9  0.000  0.001  0.008  0.009
   10  0.000  0.001  0.058  0.059
   11  0.000  0.000  0.039  0.039
   12  0.012  0.000  0.039  0.051
   13  0.000  0.000  0.036  0.036
   14  0.000  0.001  0.021  0.021
   15  0.014  0.000  0.026  0.040
   16  0.014  0.000  0.035  0.050
   17  0.012  0.000  0.041  0.052
   18  0.000  0.000  0.120  0.120
   19  0.000  0.000  0.024  0.025
   20  0.000  0.000  0.031  0.031
   21  0.002  0.000  0.017  0.019
   22  0.002  0.000  0.021  0.023
   23  0.002  0.000  0.015  0.017
   24  0.000  0.000  0.019  0.019
   25  0.000  0.000  0.030  0.030
   26  0.000  0.000  0.025  0.026
   27  0.003  0.000  0.021  0.024
   28  0.000  0.000  0.013  0.013
   29  0.001  0.000  0.005  0.006
   30  0.003  0.000  0.004  0.008
   31  0.001  0.000  0.005  0.006
   32  0.000  0.000  0.005  0.005
   33  0.003  0.000  0.004  0.007
   34  0.001  0.000  0.004  0.005
   35  0.000  0.000  0.006  0.006
   36  0.000  0.000  0.001  0.001
   37  0.000  0.000  0.000  0.000
   38  0.000  0.000  0.000  0.000
   39  0.000  0.000  0.000  0.000
tot    0.080  0.011  0.740  0.830
 
band    18 # energy   -5.42373755 # occ.  2.00000000
 
ion      s      p      d    tot
    1  0.001  0.000  0.000  0.002
    2  0.001  0.000  0.011  0.012
    3  0.001  0.000  0.011  0.012
    4  0.001  0.000  0.011  0.012
    5  0.004  0.000  0.000  0.005
    6  0.001  0.000  0.011  0.012
    7  0.001  0.000  0.011  0.012
    8  0.001  0.000  0.011  0.012
    9  0.003  0.000  0.019  0.022
   10  0.003  0.000  0.028  0.031
   11  0.002  0.000  0.005  0.007
   12  0.003  0.000  0.028  0.031
   13  0.002  0.000  0.005  0.007
   14  0.002  0.000  0.005  0.007
   15  0.002  0.000  0.063  0.065
   16  0.003  0.000  0.028  0.031
   17  0.002  0.000  0.063  0.065
   18  0.002  0.000  0.063  0.065
   19  0.000  0.000  0.041  0.041
   20  0.004  0.000  0.023  0.026
   21  0.004  0.000  0.023  0.026
   22  0.000  0.000  0.037  0.038
   23  0.004  0.000  0.023  0.026
   24  0.000  0.000  0.037  0.038
   25  0.000  0.000  0.040  0.041
   26  0.000  0.000  0.041  0.041
   27  0.000  0.000  0.037  0.038
   28  0.002  0.000  0.001  0.003
   29  0.002  0.000  0.012  0.014
   30  0.002  0.000  0.012  0.014
   31  0.002  0.000  0.012  0.014
   32  0.002  0.000  0.012  0.014
   33  0.002  0.000  0.012  0.014
   34  0.002  0.000  0.012  0.014
   35  0.010  0.000  0.012  0.022
   36  0.000  0.002  0.001  0.003
   37  0.000  0.000  0.000  0.000
   38  0.000  0.000  0.000  0.000
   39  0.000  0.000  0.000  0.000
tot    0.071  0.008  0.757  0.836
 
band    19 # energy   -5.41532927 # occ.  2.00000000
 
ion      s      p      d    tot
    1  0.000  0.000  0.005  0.006
    2  0.003  0.000  0.006  0.009
    3  0.000  0.000  0.009  0.009
    4  0.003  0.000  0.006  0.009
    5  0.000  0.000  0.009  0.009
    6  0.002  0.000  0.006  0.008
    7  0.000  0.000  0.009  0.009
    8  0.002  0.000  0.006  0.008
    9  0.000  0.000  0.018  0.018
   10  0.003  0.000  0.025  0.028
   11  0.002  0.000  0.051  0.053
   12  0.001  0.000  0.026  0.027
   13  0.002  0.000  0.050  0.052
   14  0.007  0.000  0.008  0.015
   15  0.000  0.000  0.029  0.029
   16  0.001  0.000  0.026  0.027
   17  0.000  0.000  0.029  0.029
   18  0.001  0.000  0.040  0.041
   19  0.002  0.000  0.064  0.066
   20  0.000  0.000  0.052  0.053
   21  0.000  0.000  0.024  0.024
   22  0.003  0.000  0.058  0.061
   23  0.000  0.000  0.023  0.023
   24  0.011  0.000  0.022  0.033
   25  0.007  0.000  0.008  0.015
   26  0.002  0.000  0.062  0.064
   27  0.003  0.000  0.059  0.061
   28  0.000  0.000  0.004  0.004
   29  0.000  0.000  0.008  0.008
   30  0.002  0.000  0.002  0.004
   31  0.000  0.000  0.008  0.008
   32  0.001  0.000  0.008  0.009
   33  0.002  0.000  0.002  0.004
   34  0.001  0.001  0.008  0.009
   35  0.000  0.000  0.010  0.010
   36  0.000  0.000  0.001  0.001
   37  0.000  0.000  0.000  0.000
   38  0.000  0.000  0.000  0.000
   39  0.000  0.000  0.000  0.000
tot    0.057  0.007  0.781  0.845
 
band    20 # energy   -5.41529341 # occ.  2.00000000
 
ion      s      p      d    tot
    1  0.000  0.000  0.005  0.006
    2  0.000  0.000  0.008  0.009
    3  0.003  0.000  0.005  0.009
    4  0.000  0.000  0.008  0.009
    5  0.000  0.000  0.009  0.009
    6  0.001  0.000  0.008  0.010
    7  0.003  0.000  0.005  0.009
    8  0.001  0.000  0.008  0.010
    9  0.000  0.000  0.018  0.018
   10  0.000  0.000  0.026  0.026
   11  0.005  0.000  0.022  0.027
   12  0.002  0.000  0.026  0.028
   13  0.005  0.000  0.023  0.028
   14  0.000  0.000  0.065  0.065
   15  0.001  0.000  0.036  0.037
   16  0.002  0.000  0.026  0.028
   17  0.001  0.000  0.036  0.037
   18  0.000  0.000  0.025  0.025
   19  0.005  0.000  0.025  0.031
   20  0.000  0.000  0.013  0.014
   21  0.000  0.000  0.042  0.042
   22  0.008  0.000  0.035  0.043
   23  0.000  0.000  0.043  0.043
   24  0.000  0.000  0.070  0.070
   25  0.000  0.000  0.081  0.081
   26  0.005  0.000  0.027  0.032
   27  0.008  0.000  0.034  0.042
   28  0.000  0.000  0.004  0.004
   29  0.002  0.001  0.004  0.006
   30  0.000  0.000  0.009  0.010
   31  0.002  0.001  0.004  0.006
   32  0.001  0.000  0.004  0.005
   33  0.000  0.000  0.009  0.010
   34  0.001  0.000  0.004  0.005
   35  0.000  0.000  0.010  0.011
   36  0.000  0.000  0.001  0.001
   37  0.000  0.000  0.000  0.000
   38  0.000  0.000  0.000  0.000
   39  0.000  0.000  0.000  0.000