PROCAR new format
# of k-points:   10         # of bands:  252         # of ions:   39

 k-point     1 :    0.00000000 0.00000000 0.00000000     weight = 0.01562500

band     1 # energy  -25.40574963 # occ.  2.00000000
 
ion      s      p      d    tot
    1  0.000  0.000  0.000  0.000
    2  0.000  0.000  0.000  0.000
    3  0.000  0.000  0.000  0.000
    4  0.000  0.000  0.000  0.000
    5  0.000  0.000  0.000  0.000
    6  0.000  0.000  0.000  0.000
    7  0.000  0.000  0.000  0.000
    8  0.000  0.000  0.000  0.000
    9  0.000  0.000  0.000  0.000
   10  0.000  0.000  0.000  0.000
   11  0.000  0.000  0.000  0.000
   12  0.000  0.000  0.000  0.000
   13  0.000  0.000  0.000  0.000
   14  0.000  0.000  0.000  0.000
   15  0.000  0.000  0.000  0.000
   16  0.000  0.000  0.000  0.000
   17  0.000  0.000  0.000  0.000
   18  0.000  0.000  0.000  0.000
   19  0.000  0.000  0.000  0.000
   20  0.000  0.000  0.000  0.000
   21  0.000  0.000  0.000  0.000
   22  0.000  0.000  0.000  0.000
   23  0.000  0.000  0.000  0.000
   24  0.000  0.000  0.000  0.000
   25  0.000  0.000  0.000  0.000
   26  0.000  0.000  0.000  0.000
   27  0.000  0.000  0.000  0.000
   28  0.000  0.000  0.000  0.000
   29  0.000  0.000  0.000  0.000
   30  0.000  0.000  0.000  0.000
   31  0.000  0.000  0.000  0.000
   32  0.000  0.000  0.000  0.000
   33  0.000  0.000  0.000  0.000
   34  0.000  0.000  0.000  0.000
   35  0.000  0.000  0.000  0.000
   36  0.000  0.000  0.000  0.000
   37  0.081  0.060  0.000  0.141
   38  0.724  0.009  0.000  0.733
   39  0.056  0.012  0.000  0.068
tot    0.862  0.081  0.000  0.943
 
band     2 # energy  -15.99838816 # occ.  2.00000000
 
ion      s      p      d    tot
    1  0.000  0.000  0.000  0.000
    2  0.000  0.000  0.000  0.000
    3  0.000  0.000  0.000  0.000
    4  0.000  0.000  0.000  0.000
    5  0.000  0.000  0.000  0.000
    6  0.000  0.000  0.000  0.000
    7  0.000  0.000  0.000  0.000
    8  0.000  0.000  0.000  0.000
    9  0.000  0.000  0.000  0.000
   10  0.000  0.000  0.000  0.000
   11  0.000  0.000  0.000  0.000
   12  0.000  0.000  0.000  0.000
   13  0.000  0.000  0.000  0.000
   14  0.000  0.000  0.000  0.000
   15  0.000  0.000  0.000  0.000
   16  0.000  0.000  0.000  0.000
   17  0.000  0.000  0.000  0.000
   18  0.000  0.000  0.000  0.000
   19  0.000  0.000  0.000  0.000
   20  0.000  0.000  0.000  0.000
   21  0.000  0.000  0.000  0.000
   22  0.000  0.000  0.000  0.000
   23  0.000  0.000  0.000  0.000
   24  0.000  0.000  0.000  0.000
   25  0.000  0.000  0.000  0.000
   26  0.000  0.000  0.000  0.000
   27  0.000  0.000  0.000  0.000
   28  0.000  0.000  0.000  0.000
   29  0.000  0.000  0.000  0.000
   30  0.000  0.000  0.000  0.000
   31  0.000  0.000  0.000  0.000
   32  0.000  0.000  0.000  0.000
   33  0.000  0.000  0.000  0.000
   34  0.000  0.000  0.000  0.000
   35  0.000  0.000  0.000  0.000
   36  0.002  0.002  0.003  0.008
   37  0.158  0.050  0.000  0.208
   38  0.020  0.524  0.000  0.544
   39  0.198  0.031  0.000  0.229
tot    0.378  0.607  0.003  0.988
 
band     3 # energy   -9.18447738 # occ.  2.00000000
 
ion      s      p      d    tot
    1  0.000  0.000  0.000  0.000
    2  0.000  0.000  0.000  0.000
    3  0.000  0.000  0.000  0.000
    4  0.000  0.000  0.000  0.000
    5  0.000  0.000  0.000  0.000
    6  0.000  0.000  0.000  0.000
    7  0.000  0.000  0.000  0.000
    8  0.000  0.000  0.000  0.000
    9  0.000  0.000  0.000  0.000
   10  0.001  0.000  0.000  0.002
   11  0.002  0.000  0.000  0.002
   12  0.001  0.000  0.000  0.002
   13  0.002  0.000  0.000  0.002
   14  0.002  0.000  0.000  0.002
   15  0.001  0.000  0.000  0.001
   16  0.001  0.000  0.000  0.002
   17  0.001  0.000  0.000  0.001
   18  0.001  0.000  0.000  0.001
   19  0.003  0.000  0.000  0.003
   20  0.007  0.001  0.001  0.008
   21  0.007  0.001  0.001  0.008
   22  0.003  0.000  0.000  0.003
   23  0.007  0.001  0.001  0.008
   24  0.003  0.000  0.000  0.003
   25  0.003  0.000  0.000  0.003
   26  0.003  0.000  0.000  0.003
   27  0.003  0.000  0.000  0.003
   28  0.001  0.000  0.000  0.001
   29  0.003  0.000  0.000  0.003
   30  0.003  0.000  0.000  0.003
   31  0.003  0.000  0.000  0.003
   32  0.003  0.000  0.000  0.003
   33  0.003  0.000  0.000  0.003
   34  0.003  0.000  0.000  0.003
   35  0.001  0.000  0.000  0.001
   36  0.107  0.051  0.257  0.414
   37  0.161  0.157  0.000  0.318
   38  0.010  0.043  0.000  0.053
   39  0.012  0.001  0.000  0.013
tot    0.361  0.255  0.260  0.876
 
band     4 # energy   -8.61825042 # occ.  2.00000000
 
ion      s      p      d    tot
    1  0.007  0.001  0.000  0.008
    2  0.007  0.001  0.000  0.007
    3  0.007  0.001  0.000  0.007
    4  0.007  0.001  0.000  0.007
    5  0.007  0.001  0.000  0.007
    6  0.007  0.001  0.000  0.007
    7  0.007  0.001  0.000  0.007
    8  0.007  0.001  0.000  0.007
    9  0.007  0.001  0.000  0.008
   10  0.024  0.000  0.000  0.024
   11  0.023  0.000  0.000  0.023
   12  0.024  0.000  0.000  0.024
   13  0.023  0.000  0.000  0.023
   14  0.023  0.000  0.000  0.023
   15  0.024  0.000  0.000  0.024
   16  0.024  0.000  0.000  0.024
   17  0.024  0.000  0.000  0.024
   18  0.024  0.000  0.000  0.024
   19  0.022  0.000  0.000  0.023
   20  0.017  0.001  0.000  0.018
   21  0.017  0.001  0.000  0.018
   22  0.022  0.000  0.000  0.022
   23  0.017  0.001  0.000  0.018
   24  0.022  0.000  0.000  0.022
   25  0.022  0.000  0.000  0.023
   26  0.022  0.000  0.000  0.023
   27  0.022  0.000  0.000  0.022
   28  0.006  0.001  0.000  0.006
   29  0.005  0.001  0.000  0.005
   30  0.005  0.001  0.000  0.005
   31  0.005  0.001  0.000  0.005
   32  0.005  0.001  0.000  0.005
   33  0.005  0.001  0.000  0.005
   34  0.005  0.001  0.000  0.005
   35  0.006  0.001  0.000  0.006
   36  0.001  0.015  0.042  0.058
   37  0.022  0.020  0.000  0.042
   38  0.001  0.005  0.000  0.006
   39  0.001  0.000  0.000  0.001
tot    0.525  0.056  0.044  0.626
 
band     5 # energy   -8.13422277 # occ.  2.00000000
 
ion      s      p      d    tot
    1  0.000  0.000  0.000  0.000
    2  0.000  0.000  0.000  0.000
    3  0.000  0.000  0.000  0.000
    4  0.000  0.000  0.000  0.000
    5  0.000  0.000  0.000  0.000
    6  0.000  0.000  0.000  0.000
    7  0.000  0.000  0.000  0.000
    8  0.000  0.000  0.000  0.000
    9  0.000  0.000  0.000  0.000
   10  0.000  0.000  0.000  0.000
   11  0.000  0.000  0.000  0.000
   12  0.000  0.000  0.000  0.000
   13  0.000  0.000  0.000  0.000
   14  0.000  0.000  0.000  0.000
   15  0.000  0.000  0.000  0.000
   16  0.000  0.000  0.000  0.000
   17  0.000  0.000  0.000  0.000
   18  0.000  0.000  0.000  0.000
   19  0.000  0.000  0.000  0.000
   20  0.000  0.000  0.000  0.000
   21  0.000  0.000  0.000  0.000
   22  0.000  0.000  0.000  0.000
   23  0.000  0.000  0.000  0.000
   24  0.000  0.000  0.000  0.000
   25  0.000  0.000  0.000  0.000
   26  0.000  0.000  0.000  0.000
   27  0.000  0.000  0.000  0.000
   28  0.000  0.000  0.000  0.000
   29  0.000  0.000  0.000  0.000
   30  0.000  0.000  0.000  0.000
   31  0.000  0.000  0.000  0.000
   32  0.000  0.000  0.000  0.000
   33  0.000  0.000  0.000  0.000
   34  0.000  0.000  0.000  0.000
   35  0.000  0.000  0.000  0.000
   36  0.000  0.002  0.021  0.023
   37  0.000  0.114  0.000  0.114
   38  0.000  0.543  0.000  0.543
   39  0.000  0.007  0.000  0.007
tot    0.001  0.667  0.022  0.690
 
band     6 # energy   -8.13408417 # occ.  2.00000000
 
ion      s      p      d    tot
    1  0.000  0.000  0.000  0.000
    2  0.000  0.000  0.000  0.000
    3  0.000  0.000  0.000  0.000
    4  0.000  0.000  0.000  0.000
    5  0.000  0.000  0.000  0.000
    6  0.000  0.000  0.000  0.000
    7  0.000  0.000  0.000  0.000
    8  0.000  0.000  0.000  0.000
    9  0.000  0.000  0.000  0.000
   10  0.000  0.000  0.000  0.000
   11  0.000  0.000  0.000  0.000
   12  0.000  0.000  0.000  0.000
   13  0.000  0.000  0.000  0.000
   14  0.000  0.000  0.000  0.000
   15  0.000  0.000  0.000  0.000
   16  0.000  0.000  0.000  0.000
   17  0.000  0.000  0.000  0.000
   18  0.000  0.000  0.000  0.000
   19  0.000  0.000  0.000  0.000
   20  0.000  0.000  0.000  0.000
   21  0.000  0.000  0.000  0.000
   22  0.000  0.000  0.000  0.000
   23  0.000  0.000  0.000  0.000
   24  0.000  0.000  0.000  0.000
   25  0.000  0.000  0.000  0.000
   26  0.000  0.000  0.000  0.000
   27  0.000  0.000  0.000  0.000
   28  0.000  0.000  0.000  0.000
   29  0.000  0.000  0.000  0.000
   30  0.000  0.000  0.000  0.001
   31  0.000  0.000  0.000  0.000
   32  0.000  0.000  0.000  0.000
   33  0.000  0.000  0.000  0.001
   34  0.000  0.000  0.000  0.000
   35  0.000  0.000  0.000  0.000
   36  0.000  0.002  0.021  0.023
   37  0.000  0.114  0.000  0.114
   38  0.000  0.543  0.000  0.543
   39  0.000  0.007  0.000  0.007
tot    0.001  0.667  0.022  0.690
 
band     7 # energy   -7.36122919 # occ.  2.00000000
 
ion      s      p      d    tot
    1  0.017  0.001  0.000  0.019
    2  0.017  0.001  0.000  0.018
    3  0.017  0.001  0.000  0.018
    4  0.017  0.001  0.000  0.018
    5  0.017  0.001  0.000  0.019
    6  0.017  0.001  0.000  0.018
    7  0.017  0.001  0.000  0.018
    8  0.017  0.001  0.000  0.018
    9  0.017  0.001  0.000  0.018
   10  0.009  0.002  0.001  0.012
   11  0.010  0.002  0.000  0.012
   12  0.009  0.002  0.001  0.012
   13  0.010  0.002  0.000  0.012
   14  0.010  0.002  0.000  0.012
   15  0.009  0.002  0.001  0.012
   16  0.009  0.002  0.001  0.012
   17  0.009  0.002  0.001  0.012
   18  0.009  0.002  0.001  0.012
   19  0.011  0.002  0.000  0.014
   20  0.007  0.002  0.001  0.010
   21  0.007  0.002  0.001  0.010
   22  0.011  0.002  0.000  0.014
   23  0.007  0.002  0.001  0.010
   24  0.011  0.002  0.000  0.014
   25  0.011  0.002  0.000  0.014
   26  0.011  0.002  0.000  0.014
   27  0.011  0.002  0.000  0.014
   28  0.020  0.001  0.001  0.022
   29  0.019  0.001  0.001  0.020
   30  0.019  0.001  0.001  0.020
   31  0.019  0.001  0.001  0.020
   32  0.019  0.001  0.001  0.020
   33  0.019  0.001  0.001  0.020
   34  0.019  0.001  0.001  0.020
   35  0.020  0.001  0.001  0.022
   36  0.010  0.005  0.026  0.041
   37  0.003  0.003  0.000  0.006
   38  0.000  0.000  0.000  0.000
   39  0.000  0.000  0.000  0.000
tot    0.495  0.060  0.045  0.600
 
band     8 # energy   -5.84197215 # occ.  2.00000000
 
ion      s      p      d    tot
    1  0.016  0.000  0.005  0.021
    2  0.015  0.000  0.005  0.020
    3  0.015  0.000  0.005  0.020
    4  0.015  0.000  0.005  0.020
    5  0.011  0.000  0.005  0.016
    6  0.015  0.000  0.005  0.020
    7  0.015  0.000  0.005  0.020
    8  0.015  0.000  0.005  0.020
    9  0.020  0.000  0.004  0.024
   10  0.003  0.004  0.001  0.008
   11  0.006  0.004  0.001  0.011
   12  0.003  0.004  0.001  0.008
   13  0.006  0.004  0.001  0.011
   14  0.006  0.004  0.001  0.011
   15  0.001  0.003  0.002  0.006
   16  0.003  0.004  0.001  0.008
   17  0.001  0.003  0.002  0.006
   18  0.001  0.003  0.002  0.006
   19  0.003  0.003  0.004  0.010
   20  0.013  0.003  0.004  0.020
   21  0.013  0.003  0.004  0.020
   22  0.003  0.003  0.004  0.009
   23  0.013  0.003  0.004  0.020
   24  0.003  0.003  0.004  0.009
   25  0.003  0.003  0.004  0.010
   26  0.003  0.003  0.004  0.010
   27  0.003  0.003  0.004  0.009
   28  0.017  0.000  0.006  0.023
   29  0.017  0.000  0.008  0.025
   30  0.017  0.000  0.008  0.025
   31  0.017  0.000  0.008  0.025
   32  0.017  0.000  0.008  0.025
   33  0.017  0.000  0.008  0.025
   34  0.017  0.000  0.008  0.025
   35  0.019  0.000  0.006  0.025
   36  0.017  0.002  0.049  0.068
   37  0.000  0.000  0.000  0.000
   38  0.000  0.000  0.000  0.001
   39  0.000  0.000  0.000  0.000
tot    0.380  0.063  0.201  0.643
 
band     9 # energy   -5.74897424 # occ.  2.00000000
 
ion      s      p      d    tot
    1  0.000  0.002  0.004  0.006
    2  0.007  0.002  0.002  0.011
    3  0.002  0.001  0.001  0.004
    4  0.007  0.002  0.002  0.011
    5  0.000  0.002  0.002  0.004
    6  0.002  0.001  0.002  0.005
    7  0.002  0.001  0.001  0.004
    8  0.002  0.001  0.002  0.005
    9  0.000  0.000  0.002  0.002
   10  0.051  0.004  0.003  0.058
   11  0.005  0.009  0.004  0.017
   12  0.013  0.002  0.010  0.025
   13  0.005  0.009  0.004  0.017
   14  0.021  0.000  0.006  0.027
   15  0.002  0.004  0.006  0.012
   16  0.013  0.002  0.010  0.025
   17  0.002  0.004  0.006  0.012
   18  0.006  0.002  0.003  0.012
   19  0.008  0.010  0.003  0.021
   20  0.066  0.004  0.006  0.076
   21  0.016  0.002  0.014  0.033
   22  0.001  0.005  0.007  0.014
   23  0.017  0.002  0.014  0.033
   24  0.005  0.003  0.003  0.011
   25  0.030  0.000  0.007  0.037
   26  0.007  0.010  0.003  0.020
   27  0.001  0.005  0.007  0.014
   28  0.000  0.003  0.004  0.007
   29  0.012  0.003  0.004  0.020
   30  0.006  0.002  0.003  0.010
   31  0.012  0.003  0.004  0.020
   32  0.001  0.001  0.004  0.006
   33  0.006  0.002  0.003  0.010
   34  0.001  0.001  0.004  0.006
   35  0.000  0.000  0.003  0.003
   36  0.000  0.004  0.059  0.063
   37  0.000  0.000  0.000  0.000
   38  0.000  0.002  0.000  0.002
   39  0.000  0.000  0.000  0.000
tot    0.330  0.110  0.222  0.662
 
band    10 # energy   -5.74889015 # occ.  2.00000000
 
ion      s      p      d    tot
    1  0.000  0.002  0.004  0.006
    2  0.000  0.001  0.001  0.002
    3  0.006  0.002  0.002  0.009
    4  0.000  0.001  0.001  0.002
    5  0.000  0.002  0.002  0.004
    6  0.005  0.001  0.002  0.008
    7  0.006  0.002  0.002  0.009
    8  0.005  0.001  0.002  0.008
    9  0.000  0.000  0.002  0.002
   10  0.000  0.002  0.012  0.014
   11  0.016  0.003  0.005  0.024
   12  0.038  0.003  0.006  0.047
   13  0.016  0.003  0.005  0.024
   14  0.000  0.011  0.003  0.014
   15  0.005  0.003  0.004  0.011
   16  0.038  0.003  0.006  0.047
   17  0.005  0.003  0.004  0.012
   18  0.000  0.004  0.008  0.012
   19  0.022  0.003  0.006  0.031
   20  0.000  0.001  0.017  0.019
   21  0.050  0.003  0.009  0.062
   22  0.004  0.004  0.005  0.012
   23  0.050  0.003  0.009  0.061
   24  0.000  0.006  0.009  0.015
   25  0.000  0.013  0.002  0.015
   26  0.022  0.003  0.006  0.031
   27  0.004  0.004  0.005  0.012
   28  0.000  0.003  0.004  0.007
   29  0.001  0.001  0.003  0.005
   30  0.007  0.003  0.004  0.014
   31  0.001  0.001  0.003  0.005
   32  0.012  0.003  0.003  0.018
   33  0.007  0.003  0.004  0.014
   34  0.012  0.003  0.003  0.018
   35  0.000  0.000  0.003  0.003
   36  0.000  0.004  0.059  0.063
   37  0.000  0.000  0.000  0.000
   38  0.000  0.002  0.000  0.002
   39  0.000  0.000  0.000  0.000
tot    0.330  0.110  0.222  0.662
 
band    11 # energy   -5.71788534 # occ.  2.00000000
 
ion      s      p      d    tot
    1  0.000  0.001  0.002  0.002
    2  0.008  0.002  0.002  0.012
    3  0.002  0.001  0.002  0.004
    4  0.008  0.002  0.002  0.012
    5  0.000  0.001  0.004  0.004
    6  0.002  0.001  0.002  0.005
    7  0.002  0.001  0.002  0.004
    8  0.002  0.001  0.002  0.005
    9  0.000  0.003  0.004  0.007
   10  0.000  0.010  0.003  0.013
   11  0.024  0.003  0.005  0.032
   12  0.001  0.003  0.004  0.008
   13  0.024  0.003  0.005  0.032
   14  0.000  0.000  0.013  0.013
   15  0.036  0.003  0.006  0.045
   16  0.001  0.003  0.004  0.008
   17  0.036  0.003  0.006  0.045
   18  0.000  0.008  0.008  0.016
   19  0.026  0.004  0.005  0.036
   20  0.000  0.014  0.001  0.015
   21  0.003  0.004  0.004  0.011
   22  0.045  0.004  0.006  0.056
   23  0.003  0.004  0.004  0.011
   24  0.000  0.008  0.009  0.017
   25  0.000  0.001  0.016  0.017
   26  0.026  0.004  0.006  0.035
   27  0.046  0.004  0.006  0.056
   28  0.000  0.001  0.005  0.006
   29  0.015  0.003  0.003  0.021
   30  0.004  0.002  0.004  0.010
   31  0.015  0.003  0.003  0.021
   32  0.004  0.001  0.003  0.008
   33  0.004  0.002  0.004  0.010
   34  0.003  0.001  0.003  0.008
   35  0.000  0.005  0.006  0.011
   36  0.000  0.002  0.027  0.029
   37  0.000  0.000  0.000  0.000
   38  0.000  0.000  0.000  0.000
   39  0.000  0.000  0.000  0.000
tot    0.341  0.115  0.192  0.648
 
band    12 # energy   -5.71780748 # occ.  2.00000000
 
ion      s      p      d    tot
    1  0.000  0.001  0.002  0.002
    2  0.000  0.001  0.002  0.002
    3  0.006  0.002  0.002  0.010
    4  0.000  0.001  0.002  0.002
    5  0.000  0.001  0.004  0.004
    6  0.006  0.002  0.002  0.009
    7  0.006  0.002  0.002  0.010
    8  0.006  0.002  0.002  0.009
    9  0.000  0.003  0.004  0.007
   10  0.001  0.001  0.005  0.007
   11  0.008  0.001  0.011  0.020
   12  0.000  0.008  0.003  0.011
   13  0.008  0.001  0.010  0.020
   14  0.032  0.004  0.002  0.039
   15  0.012  0.006  0.007  0.025
   16  0.000  0.008  0.003  0.011
   17  0.012  0.006  0.007  0.025
   18  0.048  0.002  0.005  0.055
   19  0.009  0.002  0.013  0.023
   20  0.004  0.001  0.006  0.010
   21  0.001  0.010  0.002  0.013
   22  0.016  0.007  0.008  0.030
   23  0.001  0.011  0.002  0.014
   24  0.061  0.002  0.005  0.069
   25  0.035  0.005  0.002  0.041
   26  0.009  0.002  0.012  0.023
   27  0.015  0.007  0.008  0.030
   28  0.000  0.001  0.005  0.006
   29  0.000  0.001  0.004  0.005
   30  0.011  0.002  0.003  0.016
   31  0.000  0.001  0.004  0.005
   32  0.011  0.003  0.004  0.018
   33  0.011  0.002  0.003  0.016
   34  0.012  0.003  0.003  0.018
   35  0.000  0.005  0.006  0.011
   36  0.000  0.002  0.027  0.029
   37  0.000  0.000  0.000  0.000
   38  0.000  0.000  0.000  0.000
   39  0.000  0.000  0.000  0.000
tot    0.341  0.115  0.192  0.648
 
band    13 # energy   -5.68956166 # occ.  2.00000000
 
ion      s      p      d    tot
    1  0.019  0.003  0.001  0.023
    2  0.000  0.002  0.004  0.005
    3  0.000  0.002  0.004  0.005
    4  0.000  0.002  0.004  0.005
    5  0.001  0.000  0.000  0.001
    6  0.000  0.002  0.004  0.005
    7  0.000  0.002  0.004  0.005
    8  0.000  0.002  0.004  0.005
    9  0.009  0.002  0.000  0.011
   10  0.028  0.005  0.006  0.040
   11  0.004  0.001  0.011  0.015
   12  0.029  0.005  0.006  0.040
   13  0.004  0.001  0.011  0.015
   14  0.004  0.001  0.011  0.015
   15  0.014  0.008  0.003  0.025
   16  0.029  0.005  0.006  0.040
   17  0.014  0.008  0.003  0.025
   18  0.013  0.008  0.003  0.025
   19  0.022  0.010  0.002  0.033
   20  0.000  0.002  0.010  0.012
   21  0.000  0.002  0.010  0.012
   22  0.027  0.003  0.009  0.039
   23  0.000  0.002  0.010  0.012
   24  0.027  0.003  0.009  0.039
   25  0.022  0.009  0.002  0.034
   26  0.022  0.010  0.002  0.033
   27  0.027  0.003  0.009  0.039
   28  0.020  0.003  0.000  0.023
   29  0.000  0.002  0.004  0.006
   30  0.000  0.002  0.004  0.006
   31  0.000  0.002  0.004  0.006
   32  0.000  0.002  0.004  0.006
   33  0.000  0.002  0.004  0.006
   34  0.000  0.002  0.004  0.006
   35  0.015  0.003  0.001  0.019
   36  0.000  0.000  0.000  0.000
   37  0.000  0.000  0.000  0.000
   38  0.000  0.000  0.000  0.000
   39  0.000  0.000  0.000  0.000
tot    0.348  0.117  0.176  0.640
 
band    14 # energy   -5.60209850 # occ.  2.00000000
 
ion      s      p      d    tot
    1  0.001  0.000  0.000  0.001
    2  0.000  0.002  0.005  0.007
    3  0.000  0.002  0.005  0.007
    4  0.000  0.002  0.005  0.007
    5  0.030  0.003  0.000  0.033
    6  0.000  0.002  0.005  0.007
    7  0.000  0.002  0.005  0.007
    8  0.000  0.002  0.005  0.007
    9  0.007  0.002  0.002  0.011
   10  0.002  0.005  0.008  0.015
   11  0.027  0.009  0.003  0.039
   12  0.002  0.005  0.008  0.015
   13  0.027  0.009  0.003  0.039
   14  0.027  0.009  0.003  0.039
   15  0.023  0.001  0.012  0.036
   16  0.002  0.005  0.008  0.015
   17  0.023  0.001  0.012  0.036
   18  0.023  0.001  0.012  0.036
   19  0.009  0.001  0.011  0.021
   20  0.024  0.005  0.006  0.035
   21  0.024  0.005  0.006  0.035
   22  0.006  0.007  0.005  0.018
   23  0.024  0.005  0.006  0.035
   24  0.006  0.007  0.005  0.018
   25  0.009  0.001  0.011  0.021
   26  0.009  0.001  0.011  0.021
   27  0.006  0.007  0.005  0.018
   28  0.001  0.001  0.002  0.003
   29  0.001  0.001  0.004  0.006
   30  0.001  0.001  0.004  0.006
   31  0.001  0.001  0.004  0.006
   32  0.001  0.001  0.004  0.006
   33  0.001  0.001  0.004  0.006
   34  0.001  0.001  0.004  0.006
   35  0.001  0.001  0.001  0.003
   36  0.015  0.008  0.007  0.030
   37  0.001  0.001  0.000  0.002
   38  0.000  0.000  0.000  0.000
   39  0.000  0.000  0.000  0.000
tot    0.339  0.119  0.198  0.656
 
band    15 # energy   -5.06292411 # occ.  2.00000000
 
ion      s      p      d    tot
    1  0.000  0.002  0.007  0.009
    2  0.015  0.003  0.004  0.022
    3  0.002  0.001  0.004  0.007
    4  0.016  0.003  0.004  0.023
    5  0.000  0.001  0.007  0.008
    6  0.007  0.002  0.004  0.013
    7  0.002  0.001  0.004  0.007
    8  0.006  0.002  0.004  0.012
    9  0.000  0.005  0.007  0.012
   10  0.000  0.005  0.008  0.013
   11  0.009  0.002  0.006  0.017
   12  0.003  0.002  0.007  0.011
   13  0.008  0.002  0.007  0.017
   14  0.000  0.001  0.015  0.017
   15  0.022  0.003  0.006  0.031
   16  0.003  0.001  0.006  0.011
   17  0.021  0.002  0.007  0.030
   18  0.000  0.001  0.015  0.017
   19  0.003  0.004  0.008  0.014
   20  0.000  0.002  0.026  0.028
   21  0.000  0.001  0.013  0.014
   22  0.004  0.004  0.009  0.016
   23  0.000  0.001  0.012  0.013
   24  0.000  0.000  0.025  0.025
   25  0.000  0.000  0.004  0.004
   26  0.002  0.004  0.008  0.014
   27  0.004  0.004  0.008  0.016
   28  0.000  0.003  0.005  0.008
   29  0.022  0.002  0.010  0.034
   30  0.001  0.003  0.010  0.014
   31  0.023  0.002  0.010  0.035
   32  0.015  0.001  0.010  0.026
   33  0.001  0.002  0.010  0.013
   34  0.014  0.001  0.010  0.025
   35  0.000  0.005  0.005  0.010
   36  0.000  0.000  0.150  0.151
   37  0.000  0.000  0.000  0.000
   38  0.000  0.001  0.000  0.001
   39  0.000  0.000  0.000  0.000
tot    0.203  0.079  0.455  0.737
 
band    16 # energy   -5.06292021 # occ.  2.00000000
 
ion      s      p      d    tot
    1  0.000  0.002  0.007  0.009
    2  0.001  0.001  0.004  0.006
    3  0.014  0.003  0.004  0.021
    4  0.000  0.001  0.004  0.005
    5  0.000  0.001  0.007  0.008
    6  0.009  0.002  0.004  0.015
    7  0.014  0.003  0.004  0.021
    8  0.010  0.002  0.004  0.016
    9  0.000  0.005  0.007  0.012
   10  0.004  0.000  0.006  0.010
   11  0.002  0.001  0.013  0.017
   12  0.001  0.004  0.007  0.012
   13  0.003  0.001  0.012  0.017
   14  0.011  0.002  0.004  0.017
   15  0.007  0.002  0.013  0.021
   16  0.001  0.004  0.007  0.013
   17  0.008  0.002  0.012  0.022
   18  0.029  0.003  0.003  0.035
   19  0.001  0.001  0.005  0.007
   20  0.000  0.000  0.008  0.009
   21  0.000  0.001  0.021  0.022
   22  0.001  0.002  0.019  0.022
   23  0.000  0.002  0.022  0.023
   24  0.005  0.005  0.003  0.013
   25  0.003  0.005  0.009  0.017
   26  0.001  0.001  0.006  0.008
   27  0.001  0.001  0.020  0.022
   28  0.000  0.003  0.005  0.008
   29  0.003  0.001  0.010  0.015
   30  0.024  0.001  0.010  0.035
   31  0.002  0.002  0.010  0.014
   32  0.010  0.003  0.010  0.023
   33  0.025  0.001  0.010  0.036
   34  0.011  0.003  0.010  0.024
   35  0.000  0.005  0.005  0.010
   36  0.000  0.000  0.150  0.150
   37  0.000  0.000  0.000  0.000
   38  0.000  0.001  0.000  0.001
   39  0.000  0.000  0.000  0.000
tot    0.203  0.079  0.455  0.737
 
band    17 # energy   -5.00387209 # occ.  2.00000000
 
ion      s      p      d    tot
    1  0.000  0.004  0.009  0.014
    2  0.021  0.004  0.005  0.030
    3  0.003  0.002  0.005  0.010
    4  0.021  0.004  0.005  0.030
    5  0.000  0.005  0.010  0.015
    6  0.008  0.003  0.005  0.016
    7  0.003  0.002  0.005  0.010
    8  0.008  0.003  0.005  0.016
    9  0.000  0.000  0.011  0.011
   10  0.029  0.004  0.006  0.039
   11  0.005  0.004  0.014  0.023
   12  0.007  0.001  0.019  0.027
   13  0.005  0.004  0.014  0.023
   14  0.020  0.002  0.006  0.028
   15  0.000  0.004  0.012  0.015
   16  0.008  0.001  0.018  0.027
   17  0.000  0.004  0.012  0.016
   18  0.001  0.001  0.007  0.009
   19  0.000  0.001  0.017  0.018
   20  0.011  0.008  0.003  0.022
   21  0.003  0.002  0.017  0.022
   22  0.000  0.001  0.007  0.009
   23  0.003  0.002  0.017  0.022
   24  0.001  0.001  0.010  0.012
   25  0.002  0.001  0.002  0.005
   26  0.000  0.001  0.017  0.018
   27  0.000  0.001  0.007  0.009
   28  0.000  0.002  0.005  0.007
   29  0.012  0.003  0.006  0.021
   30  0.002  0.001  0.004  0.007
   31  0.012  0.003  0.006  0.021
   32  0.004  0.002  0.006  0.012
   33  0.003  0.001  0.004  0.007
   34  0.004  0.002  0.006  0.012
   35  0.000  0.000  0.006  0.006
   36  0.000  0.004  0.135  0.139
   37  0.000  0.002  0.000  0.002
   38  0.000  0.005  0.000  0.005
   39  0.000  0.000  0.000  0.000
tot    0.197  0.094  0.444  0.735
 
band    18 # energy   -5.00384802 # occ.  2.00000000
 
ion      s      p      d    tot
    1  0.000  0.004  0.009  0.014
    2  0.000  0.002  0.005  0.007
    3  0.018  0.004  0.005  0.028
    4  0.000  0.002  0.005  0.007
    5  0.000  0.005  0.010  0.015
    6  0.014  0.003  0.005  0.022
    7  0.018  0.004  0.005  0.027
    8  0.013  0.003  0.005  0.021
    9  0.000  0.000  0.011  0.011
   10  0.000  0.000  0.023  0.023
   11  0.015  0.003  0.009  0.026
   12  0.022  0.003  0.010  0.035
   13  0.015  0.002  0.008  0.026
   14  0.000  0.004  0.017  0.022
   15  0.001  0.002  0.009  0.011
   16  0.022  0.003  0.010  0.035
   17  0.001  0.002  0.009  0.011
   18  0.000  0.005  0.013  0.018
   19  0.001  0.001  0.007  0.010
   20  0.000  0.000  0.022  0.022
   21  0.008  0.006  0.008  0.022
   22  0.001  0.001  0.009  0.011
   23  0.008  0.006  0.008  0.022
   24  0.000  0.001  0.007  0.007
   25  0.000  0.001  0.022  0.022
   26  0.001  0.001  0.007  0.009
   27  0.001  0.001  0.009  0.011
   28  0.000  0.002  0.005  0.007
   29  0.000  0.001  0.005  0.006
   30  0.010  0.003  0.007  0.020
   31  0.000  0.001  0.005  0.006
   32  0.009  0.002  0.004  0.015
   33  0.010  0.003  0.007  0.020
   34  0.008  0.002  0.004  0.015
   35  0.000  0.000  0.006  0.006
   36  0.000  0.004  0.135  0.139
   37  0.000  0.002  0.000  0.002
   38  0.000  0.005  0.000  0.005
   39  0.000  0.000  0.000  0.000
tot    0.197  0.094  0.444  0.735
 
band    19 # energy   -4.98390453 # occ.  2.00000000
 
ion      s      p      d    tot
    1  0.005  0.001  0.011  0.017
    2  0.007  0.000  0.010  0.017
    3  0.007  0.000  0.010  0.017
    4  0.007  0.000  0.010  0.017
    5  0.007  0.000  0.010  0.017
    6  0.007  0.000  0.010  0.017
    7  0.007  0.000  0.010  0.017
    8  0.007  0.000  0.010  0.017
    9  0.008  0.000  0.010  0.019
   10  0.009  0.000  0.024  0.033
   11  0.007  0.000  0.023  0.030
   12  0.009  0.000  0.024  0.033
   13  0.007  0.000  0.023  0.030
   14  0.007  0.000  0.023  0.030
   15  0.007  0.000  0.023  0.031
   16  0.009  0.000  0.024  0.033
   17  0.007  0.000  0.023  0.031
   18  0.007  0.000  0.023  0.031
   19  0.006  0.000  0.018  0.024
   20  0.005  0.000  0.022  0.027
   21  0.005  0.000  0.022  0.027
   22  0.005  0.000  0.017  0.022
   23  0.005  0.000  0.022  0.027
   24  0.005  0.000  0.017  0.022
   25  0.006  0.000  0.018  0.024
   26  0.006  0.000  0.018  0.024
   27  0.005  0.000  0.017  0.022
   28  0.001  0.001  0.005  0.006
   29  0.002  0.001  0.007  0.010
   30  0.002  0.001  0.007  0.010
   31  0.002  0.001  0.007  0.010
   32  0.002  0.001  0.007  0.010
   33  0.002  0.001  0.007  0.010
   34  0.002  0.001  0.007  0.010
   35  0.001  0.001  0.005  0.006
   36  0.010  0.003  0.035  0.048
   37  0.001  0.000  0.000  0.001
   38  0.000  0.000  0.000  0.001
   39  0.000  0.000  0.000  0.000
tot    0.205  0.016  0.557  0.779
 
band    20 # energy   -4.91432817 # occ.  2.00000000
 
ion      s      p      d    tot
    1  0.032  0.003  0.001  0.036
    2  0.000  0.003  0.010  0.013
    3  0.000  0.003  0.010  0.013
    4  0.000  0.003  0.010  0.013
    5  0.000  0.000  0.000  0.000
    6  0.000  0.003  0.010  0.013
    7  0.000  0.003  0.010  0.013
    8  0.000  0.003  0.010  0.013
    9  0.032  0.004  0.000  0.036
   10  0.010  0.004  0.010  0.024
   11  0.001  0.000  0.015  0.016
   12  0.010  0.004  0.010  0.024
   13  0.001  0.000  0.015  0.016
   14  0.001  0.000  0.015  0.016
   15  0.007  0.004  0.016  0.027
   16  0.010  0.004  0.010  0.024
   17  0.007  0.004  0.016  0.027
   18  0.007  0.004  0.016  0.027
   19  0.005  0.003  0.020  0.028
   20  0.000  0.000  0.013  0.014
   21  0.000  0.000  0.013  0.014
   22  0.010  0.004  0.010  0.023
   23  0.000  0.000  0.013  0.014
   24  0.010  0.004  0.010  0.023
   25  0.005  0.003  0.020  0.028
   26  0.005  0.003  0.020  0.028
   27  0.010  0.004  0.010  0.023
   28  0.036  0.003  0.000  0.039
   29  0.000  0.003  0.010  0.014
   30  0.000  0.003  0.010  0.014
   31  0.000  0.003  0.010  0.014
   32  0.000  0.003  0.010  0.014
   33  0.000  0.003  0.010  0.014
   34  0.000  0.003  0.010  0.014
   35  0.031  0.004  0.001  0.035
   36  0.000  0.000  0.000  0.000
   37  0.000  0.000  0.000  0.000
   38  0.000  0.000  0.000  0.000
   39  0.000  0.000  0.000  0.000