 vasp.6.2.0 18Jan21 (build Jun 12 2021 23:27:24) complex                        
  
 executed on             LinuxIFC date 2022.05.27  05:46:32
 running on   28 total cores
 distrk:  each k-point on   28 cores,    1 groups
 distr:  one band on NCORE=   1 cores,   28 groups


--------------------------------------------------------------------------------------------------------


 INCAR:
   ISMEAR = -5
   SIGMA = 0.1
   ISPIN = 1
   EDIFF = 1.d-5
   EDIFFG = -0.01
   NSW = 0
   NELM = 150
   ENCUT = 500
   ISIF = 2
   IBRION = 2
   LREAL = Auto
   ALGO = Fast
   ICHARG = 11
   LORBIT = 10
   LCHARG = .F.
   LWAVE = .F.

 POTCAR:    PAW_PBE Ag 02Apr2005                  
 POTCAR:    PAW_PBE Hf 20Jan2003                  
 POTCAR:    PAW_PBE C 08Apr2002                   
 POTCAR:    PAW_PBE O 08Apr2002                   
 -----------------------------------------------------------------------------
|                                                                             |
|           W    W    AA    RRRRR   N    N  II  N    N   GGGG   !!!           |
|           W    W   A  A   R    R  NN   N  II  NN   N  G    G  !!!           |
|           W    W  A    A  R    R  N N  N  II  N N  N  G       !!!           |
|           W WW W  AAAAAA  RRRRR   N  N N  II  N  N N  G  GGG   !            |
|           WW  WW  A    A  R   R   N   NN  II  N   NN  G    G                |
|           W    W  A    A  R    R  N    N  II  N    N   GGGG   !!!           |
|                                                                             |
|     For optimal performance we recommend to set                             |
|       NCORE = 2 up to number-of-cores-per-socket                            |
|     NCORE specifies how many cores store one orbital (NPAR=cpu/NCORE).      |
|     This setting can greatly improve the performance of VASP for DFT.       |
|     The default, NCORE=1 might be grossly inefficient on modern             |
|     multi-core architectures or massively parallel machines. Do your        |
|     own testing! More info at https://www.vasp.at/wiki/index.php/NCORE      |
|     Unfortunately you need to use the default for GW and RPA                |
|     calculations (for HF NCORE is supported but not extensively tested      |
|     yet).                                                                   |
|                                                                             |
 -----------------------------------------------------------------------------

 POTCAR:    PAW_PBE Ag 02Apr2005                  
   VRHFIN =Ag : s1 d10                                                                              
   LEXCH  = PE                                                                                      
   EATOM  =  1037.2675 eV,   76.2370 Ry                                                             
                                                                                                    
   TITEL  = PAW_PBE Ag 02Apr2005                                                                    
   LULTRA =        F    use ultrasoft PP ?                                                          
   IUNSCR =        1    unscreen: 0-lin 1-nonlin 2-no                                               
   RPACOR =    2.000    partial core radius                                                         
   POMASS =  107.868; ZVAL   =   11.000    mass and valenz                                          
   RCORE  =    2.500    outmost cutoff radius                                                       
   RWIGS  =    2.840; RWIGS  =    1.503    wigner-seitz radius (au A)                               
   ENMAX  =  249.844; ENMIN  =  187.383 eV                                                          
   ICORE  =        3    local potential                                                             
   LCOR   =        T    correct aug charges                                                         
   LPAW   =        T    paw PP                                                                      
   EAUG   =  412.496                                                                                
   DEXC   =    0.000                                                                                
   RMAX   =    2.560    core radius for proj-oper                                                   
   RAUG   =    1.300    factor for augmentation sphere                                              
   RDEP   =    2.576    radius for radial grids                                                     
   RDEPT  =    2.072    core radius for aug-charge                                                  
                                                                                                    
   Atomic configuration                                                                             
   12 entries                                                                                       
     n  l   j            E        occ.                                                              
     1  0  0.50    -25324.9161   2.0000                                                             
     2  0  0.50     -3728.5341   2.0000                                                             
     2  1  1.50     -3344.0404   6.0000                                                             
     3  0  0.50      -683.5581   2.0000                                                             
     3  1  1.50      -557.3225   6.0000                                                             
     3  2  2.50      -358.3853  10.0000                                                             
     4  0  0.50       -95.0341   2.0000                                                             
     4  1  1.50       -58.5511   6.0000                                                             
     4  2  2.50        -7.4440  10.0000                                                             
     5  0  0.50        -4.4045   1.0000                                                             
     5  1  0.50        -1.3606   0.0000                                                             
     4  3  2.50        -1.3606   0.0000                                                             
   Description                                                                                      
     l       E           TYP  RCUT    TYP  RCUT                                                     
     2     -7.4439781     23  2.400                                                                 
     2     -8.8045607     23  2.400                                                                 
     0     -4.4044681     23  2.400                                                                 
     0      1.9520038     23  2.400                                                                 
     1     -1.3605826     23  2.500                                                                 
     1     27.2116520     23  2.500                                                                 
     3     -4.0817478     23  2.400                                                                 
  local pseudopotential read in
  partial core-charges read in
  partial kinetic energy density read in
  atomic valenz-charges read in
  non local Contribution for L=           2  read in
    real space projection operators read in
  non local Contribution for L=           2  read in
    real space projection operators read in
  non local Contribution for L=           0  read in
    real space projection operators read in
  non local Contribution for L=           0  read in
    real space projection operators read in
  non local Contribution for L=           1  read in
    real space projection operators read in
  non local Contribution for L=           1  read in
    real space projection operators read in
    PAW grid and wavefunctions read in
 
   number of l-projection  operators is LMAX  =           6
   number of lm-projection operators is LMMAX =          18
 
 POTCAR:    PAW_PBE Hf 20Jan2003                  
   VRHFIN =Hf: 6s5d                                                                                 
   LEXCH  = PE                                                                                      
   EATOM  =    75.9011 eV,    5.5786 Ry                                                             
                                                                                                    
   TITEL  = PAW_PBE Hf 20Jan2003                                                                    
   LULTRA =        F    use ultrasoft PP ?                                                          
   IUNSCR =        1    unscreen: 0-lin 1-nonlin 2-no                                               
   RPACOR =    2.500    partial core radius                                                         
   POMASS =  178.490; ZVAL   =    4.000    mass and valenz                                          
   RCORE  =    3.000    outmost cutoff radius                                                       
   RWIGS  =    3.050; RWIGS  =    1.614    wigner-seitz radius (au A)                               
   ENMAX  =  220.334; ENMIN  =  165.250 eV                                                          
   RCLOC  =    2.212    cutoff for local pot                                                        
   LCOR   =        T    correct aug charges                                                         
   LPAW   =        T    paw PP                                                                      
   EAUG   =  335.116                                                                                
   DEXC   =    0.000                                                                                
   RMAX   =    3.077    core radius for proj-oper                                                   
   RAUG   =    1.300    factor for augmentation sphere                                              
   RDEP   =    3.047    radius for radial grids                                                     
   RDEPT  =    2.344    core radius for aug-charge                                                  
                                                                                                    
   Atomic configuration                                                                             
   16 entries                                                                                       
     n  l   j            E        occ.                                                              
     1  0  0.50    -65259.4397   2.0000                                                             
     2  0  0.50    -11157.9882   2.0000                                                             
     2  1  1.50     -9795.2113   6.0000                                                             
     3  0  0.50     -2541.4058   2.0000                                                             
     3  1  1.50     -2134.4770   6.0000                                                             
     3  2  2.50     -1653.5418  10.0000                                                             
     4  0  0.50      -510.9575   2.0000                                                             
     4  1  1.50      -377.5023   6.0000                                                             
     4  2  2.50      -205.2085  10.0000                                                             
     4  3  3.50       -15.4905  14.0000                                                             
     5  0  0.50       -65.6020   2.0000                                                             
     5  1  1.50       -34.2798   6.0000                                                             
     5  2  2.50        -1.9877   3.0000                                                             
     6  0  0.50        -4.7357   1.0000                                                             
     6  1  1.50        -1.3606   0.0000                                                             
     5  3  2.50        -1.3606   0.0000                                                             
   Description                                                                                      
     l       E           TYP  RCUT    TYP  RCUT                                                     
     2     -1.9876627     23  2.500                                                                 
     2      0.0744703     23  2.500                                                                 
     0     -4.7356889     23  2.600                                                                 
     0      3.2364747     23  2.600                                                                 
     1     -1.3605826     23  3.000                                                                 
     1     27.2116520     23  3.000                                                                 
  local pseudopotential read in
  partial core-charges read in
  partial kinetic energy density read in
  atomic valenz-charges read in
  non local Contribution for L=           2  read in
    real space projection operators read in
  non local Contribution for L=           2  read in
    real space projection operators read in
  non local Contribution for L=           0  read in
    real space projection operators read in
  non local Contribution for L=           0  read in
    real space projection operators read in
  non local Contribution for L=           1  read in
    real space projection operators read in
  non local Contribution for L=           1  read in
    real space projection operators read in
    PAW grid and wavefunctions read in
 
   number of l-projection  operators is LMAX  =           6
   number of lm-projection operators is LMMAX =          18
 
 POTCAR:    PAW_PBE C 08Apr2002                   
   VRHFIN =C: s2p2                                                                                  
   LEXCH  = PE                                                                                      
   EATOM  =   147.1560 eV,   10.8157 Ry                                                             
                                                                                                    
   TITEL  = PAW_PBE C 08Apr2002                                                                     
   LULTRA =        F    use ultrasoft PP ?                                                          
   IUNSCR =        1    unscreen: 0-lin 1-nonlin 2-no                                               
   RPACOR =    1.200    partial core radius                                                         
   POMASS =   12.011; ZVAL   =    4.000    mass and valenz                                          
   RCORE  =    1.500    outmost cutoff radius                                                       
   RWIGS  =    1.630; RWIGS  =    0.863    wigner-seitz radius (au A)                               
   ENMAX  =  400.000; ENMIN  =  300.000 eV                                                          
   ICORE  =        2    local potential                                                             
   LCOR   =        T    correct aug charges                                                         
   LPAW   =        T    paw PP                                                                      
   EAUG   =  644.873                                                                                
   DEXC   =    0.000                                                                                
   RMAX   =    1.529    core radius for proj-oper                                                   
   RAUG   =    1.300    factor for augmentation sphere                                              
   RDEP   =    1.501    radius for radial grids                                                     
   RDEPT  =    1.300    core radius for aug-charge                                                  
                                                                                                    
   Atomic configuration                                                                             
    4 entries                                                                                       
     n  l   j            E        occ.                                                              
     1  0  0.50      -273.3789   2.0000                                                             
     2  0  0.50       -13.7508   2.0000                                                             
     2  1  0.50        -5.2854   2.0000                                                             
     3  2  1.50        -5.4423   0.0000                                                             
   Description                                                                                      
     l       E           TYP  RCUT    TYP  RCUT                                                     
     0    -13.7508458     23  1.200                                                                 
     0     -8.2022199     23  1.200                                                                 
     1     -5.2854383     23  1.500                                                                 
     1     34.0145650     23  1.500                                                                 
     2     -5.4423304      7  1.500                                                                 
  local pseudopotential read in
  partial core-charges read in
  partial kinetic energy density read in
  atomic valenz-charges read in
  non local Contribution for L=           0  read in
    real space projection operators read in
  non local Contribution for L=           0  read in
    real space projection operators read in
  non local Contribution for L=           1  read in
    real space projection operators read in
  non local Contribution for L=           1  read in
    real space projection operators read in
    PAW grid and wavefunctions read in
 
   number of l-projection  operators is LMAX  =           4
   number of lm-projection operators is LMMAX =           8
 
 POTCAR:    PAW_PBE O 08Apr2002                   
   VRHFIN =O: s2p4                                                                                  
   LEXCH  = PE                                                                                      
   EATOM  =   432.3788 eV,   31.7789 Ry                                                             
                                                                                                    
   TITEL  = PAW_PBE O 08Apr2002                                                                     
   LULTRA =        F    use ultrasoft PP ?                                                          
   IUNSCR =        1    unscreen: 0-lin 1-nonlin 2-no                                               
   RPACOR =    1.200    partial core radius                                                         
   POMASS =   16.000; ZVAL   =    6.000    mass and valenz                                          
   RCORE  =    1.520    outmost cutoff radius                                                       
   RWIGS  =    1.550; RWIGS  =    0.820    wigner-seitz radius (au A)                               
   ENMAX  =  400.000; ENMIN  =  300.000 eV                                                          
   ICORE  =        2    local potential                                                             
   LCOR   =        T    correct aug charges                                                         
   LPAW   =        T    paw PP                                                                      
   EAUG   =  605.392                                                                                
   DEXC   =    0.000                                                                                
   RMAX   =    1.553    core radius for proj-oper                                                   
   RAUG   =    1.300    factor for augmentation sphere                                              
   RDEP   =    1.550    radius for radial grids                                                     
   RDEPT  =    1.329    core radius for aug-charge                                                  
                                                                                                    
   Atomic configuration                                                                             
    4 entries                                                                                       
     n  l   j            E        occ.                                                              
     1  0  0.50      -514.6923   2.0000                                                             
     2  0  0.50       -23.9615   2.0000                                                             
     2  1  0.50        -9.0305   4.0000                                                             
     3  2  1.50        -9.5241   0.0000                                                             
   Description                                                                                      
     l       E           TYP  RCUT    TYP  RCUT                                                     
     0    -23.9615318     23  1.200                                                                 
     0     -9.5240782     23  1.200                                                                 
     1     -9.0304911     23  1.520                                                                 
     1      8.1634956     23  1.520                                                                 
     2     -9.5240782      7  1.500                                                                 
  local pseudopotential read in
  partial core-charges read in
  partial kinetic energy density read in
  kinetic energy density of atom read in
  atomic valenz-charges read in
  non local Contribution for L=           0  read in
    real space projection operators read in
  non local Contribution for L=           0  read in
    real space projection operators read in
  non local Contribution for L=           1  read in
    real space projection operators read in
  non local Contribution for L=           1  read in
    real space projection operators read in
    PAW grid and wavefunctions read in
 
   number of l-projection  operators is LMAX  =           4
   number of lm-projection operators is LMMAX =           8
 
 Optimization of the real space projectors (new method)

 maximal supplied QI-value         = 15.12
 optimisation between [QCUT,QGAM] = [ 11.34, 22.83] = [ 36.00,145.93] Ry 
 Optimized for a Real-space Cutoff    1.43 Angstroem

   l    n(q)    QCUT    max X(q) W(low)/X(q) W(high)/X(q)  e(spline) 
   2      9    11.338    53.897    0.16E-03    0.20E-03    0.28E-06
   2      9    11.338    52.416    0.16E-03    0.20E-03    0.29E-06
   0     10    11.338   122.045    0.31E-04    0.76E-04    0.15E-06
   0     10    11.338    73.629    0.30E-04    0.72E-04    0.15E-06
   1      9    11.338    15.255    0.20E-03    0.19E-04    0.17E-06
   1      9    11.338     9.562    0.16E-03    0.15E-04    0.14E-06
 Optimization of the real space projectors (new method)

 maximal supplied QI-value         = 12.47
 optimisation between [QCUT,QGAM] = [ 11.35, 22.82] = [ 36.07,145.88] Ry 
 Optimized for a Real-space Cutoff    1.66 Angstroem

   l    n(q)    QCUT    max X(q) W(low)/X(q) W(high)/X(q)  e(spline) 
   2     10    11.350    48.111    0.20E-03    0.11E-03    0.41E-06
   2     10    11.350    40.545    0.19E-03    0.10E-03    0.39E-06
   0     11    11.350   121.658    0.22E-04    0.19E-04    0.24E-06
   0     11    11.350    71.177    0.17E-04    0.17E-04    0.23E-06
   1     11    11.350    14.183    0.25E-03    0.43E-03    0.12E-05
   1     11    11.350     8.257    0.17E-03    0.29E-03    0.81E-06
 Optimization of the real space projectors (new method)

 maximal supplied QI-value         = 25.13
 optimisation between [QCUT,QGAM] = [ 11.31, 22.87] = [ 35.82,146.48] Ry 
 Optimized for a Real-space Cutoff    1.00 Angstroem

   l    n(q)    QCUT    max X(q) W(low)/X(q) W(high)/X(q)  e(spline) 
   0      7    11.310   115.676    0.43E-03    0.13E-02    0.19E-06
   0      7    11.310    87.132    0.43E-03    0.13E-02    0.18E-06
   1      6    11.310     4.429    0.42E-03    0.74E-03    0.11E-06
   1      6    11.310     2.733    0.34E-03    0.55E-03    0.92E-07
 Optimization of the real space projectors (new method)

 maximal supplied QI-value         = 24.76
 optimisation between [QCUT,QGAM] = [ 11.39, 22.77] = [ 36.31,145.25] Ry 
 Optimized for a Real-space Cutoff    1.00 Angstroem

   l    n(q)    QCUT    max X(q) W(low)/X(q) W(high)/X(q)  e(spline) 
   0      7    11.387    20.381    0.39E-03    0.13E-02    0.15E-06
   0      7    11.387    15.268    0.42E-03    0.14E-02    0.17E-06
   1      6    11.387     5.964    0.41E-03    0.11E-02    0.17E-06
   1      6    11.387     5.382    0.39E-03    0.87E-03    0.15E-06
  PAW_PBE Ag 02Apr2005                  :
 energy of atom  1       EATOM=-1037.2675
 kinetic energy error for atom=    0.0052 (will be added to EATOM!!)
  PAW_PBE Hf 20Jan2003                  :
 energy of atom  2       EATOM=  -75.9011
 kinetic energy error for atom=    0.0007 (will be added to EATOM!!)
  PAW_PBE C 08Apr2002                   :
 energy of atom  3       EATOM= -147.1560
 kinetic energy error for atom=    0.0076 (will be added to EATOM!!)
  PAW_PBE O 08Apr2002                   :
 energy of atom  4       EATOM= -432.3788
 kinetic energy error for atom=    0.0224 (will be added to EATOM!!)
 
 
 POSCAR: Ag-Hf-CO
  positions in direct lattice
  velocities in cartesian coordinates
 exchange correlation table for  LEXCH =        8
   RHO(1)=    0.500       N(1)  =     2000
   RHO(2)=  100.500       N(2)  =     4000

 VTST: version 3.2, (02/03/18)

 CHAIN: initializing optimizer
 
 OPT: Using VASP Conjugate-Gradient optimizer
 CHAIN: Read ICHAIN            0
 
 POSCAR: Ag-Hf-CO
  positions in direct lattice
  velocities in cartesian coordinates
 


--------------------------------------------------------------------------------------------------------


 ion  position               nearest neighbor table
   1  0.000  0.000  0.238-   2 2.93   8 2.93   7 2.93   6 2.93   4 2.93  12 2.93  16 2.93  10 2.93
                             3 2.93
   2  0.333  0.000  0.238-   1 2.93   8 2.93   9 2.93   3 2.93   4 2.93   5 2.93  10 2.93  17 2.93
                            11 2.93
   3  0.667  0.000  0.238-   9 2.93   2 2.93   5 2.93  11 2.93   7 2.93  18 2.93   1 2.93   6 2.93
                            12 2.93
   4  0.000  0.333  0.238-   5 2.93   6 2.93   2 2.93   1 2.93   7 2.93  13 2.93  15 2.93   9 2.93
                            10 2.93
   5  0.333  0.333  0.238-   4 2.93   3 2.93   7 2.93   2 2.93   8 2.93  14 2.93  13 2.93  11 2.93
                             6 2.93
   6  0.667  0.333  0.238-   4 2.93   9 2.93   1 2.93  15 2.93   8 2.93  12 2.93   3 2.93   5 2.93
                            14 2.93
   7  0.000  0.667  0.238-   8 2.93   1 2.93   5 2.93   3 2.93   4 2.93  16 2.93  18 2.93  13 2.93
                             9 2.93
   8  0.333  0.667  0.238-   7 2.93   1 2.93   2 2.93   9 2.93   5 2.93  16 2.93   6 2.93  17 2.93
                            14 2.93
   9  0.667  0.667  0.238-   3 2.93   2 2.93   8 2.93   6 2.93  17 2.93   4 2.93  15 2.93   7 2.93
                            18 2.93
  10  0.111  0.111  0.346-  20 2.90  19 2.92  26 2.92  12 2.93  16 2.93  15 2.93  17 2.93  13 2.93
                            11 2.93   2 2.93   1 2.93   4 2.93
  11  0.444  0.111  0.346-  21 2.90  20 2.90  14 2.93  17 2.93  18 2.93   3 2.93  12 2.93  13 2.93
                            10 2.93   5 2.93   2 2.93  27 2.93
  12  0.778  0.111  0.346-  21 2.90  25 2.92  19 2.92  10 2.93  16 2.93  18 2.93  15 2.93  11 2.93
                             1 2.93  14 2.93   6 2.93   3 2.93
  13  0.111  0.444  0.346-  20 2.90  23 2.90  15 2.93  14 2.93  18 2.93  10 2.93  11 2.93  16 2.93
                             4 2.93   5 2.93   7 2.93  22 2.93
  14  0.444  0.444  0.346-  23 2.90  21 2.90  13 2.93  11 2.93  16 2.93   5 2.93  12 2.93  17 2.93
                             8 2.93  15 2.93   6 2.93  24 2.93
  15  0.778  0.444  0.346-  19 2.92  24 2.93  22 2.93  13 2.93  10 2.93  12 2.93  17 2.93  18 2.93
                             4 2.93   6 2.93   9 2.93  14 2.93
  16  0.111  0.778  0.346-  23 2.90  26 2.92  25 2.92  18 2.93  12 2.93  10 2.93  14 2.93  17 2.93
                            13 2.93   7 2.93   8 2.93   1 2.93
  17  0.444  0.778  0.346-  26 2.92  27 2.93  24 2.93  11 2.93  10 2.93   9 2.93  18 2.93  15 2.93
                            16 2.93   2 2.93  14 2.93   8 2.93
  18  0.778  0.778  0.346-  25 2.92  22 2.93  27 2.93  16 2.93  12 2.93  13 2.93  11 2.93  17 2.93
                            15 2.93   7 2.93   3 2.93   9 2.93
  19  0.889  0.222  0.454-  10 2.92  12 2.92  15 2.92  20 2.93  21 2.93  26 2.93  25 2.93  24 2.93
                            22 2.93  28 2.94  32 2.98  31 2.98
  20  0.222  0.222  0.452-  36 2.86  10 2.90  13 2.90  11 2.90  19 2.93  26 2.93  27 2.93  22 2.93
                            21 2.94  23 2.94  31 2.97  29 2.97
  21  0.556  0.222  0.452-  36 2.86  12 2.90  11 2.90  14 2.90  25 2.93  19 2.93  27 2.93  24 2.93
                            20 2.94  23 2.94  30 2.97  32 2.97
  22  0.889  0.556  0.454-  24 2.93  27 2.93  18 2.93  15 2.93  25 2.93  19 2.93  13 2.93  23 2.93
                            20 2.93  35 2.94  33 2.96  31 2.96
  23  0.222  0.556  0.452-  36 2.86  16 2.90  14 2.90  13 2.90  26 2.93  25 2.93  22 2.93  24 2.93
                            21 2.94  20 2.94  34 2.97  33 2.97
  24  0.556  0.556  0.454-  27 2.93  22 2.93  15 2.93  17 2.93  19 2.93  26 2.93  14 2.93  23 2.93
                            21 2.93  35 2.94  32 2.96  34 2.96
  25  0.889  0.889  0.454-  16 2.92  12 2.92  18 2.92  23 2.93  21 2.93  26 2.93  19 2.93  22 2.93
                            27 2.93  28 2.94  33 2.98  30 2.98
  26  0.222  0.889  0.454-  16 2.92  10 2.92  17 2.92  23 2.93  20 2.93  25 2.93  19 2.93  27 2.93
                            24 2.93  28 2.94  34 2.98  29 2.98
  27  0.556  0.889  0.454-  24 2.93  22 2.93  17 2.93  18 2.93  26 2.93  25 2.93  11 2.93  20 2.93
                            21 2.93  35 2.94  29 2.96  30 2.96
  28  0.000  0.000  0.562-  26 2.94  25 2.94  19 2.94  29 2.94  34 2.94  33 2.94  32 2.94  31 2.94
                            30 2.94
  29  0.333  0.003  0.563-  30 2.90  31 2.91  36 2.91  35 2.94  28 2.94  27 2.96  20 2.97  26 2.98
                            34 2.98
  30  0.664  0.003  0.563-  29 2.90  32 2.91  36 2.91  35 2.94  28 2.94  27 2.96  21 2.97  25 2.98
                            33 2.98
  31  0.003  0.333  0.563-  33 2.90  29 2.91  36 2.91  35 2.94  28 2.94  22 2.96  20 2.97  19 2.98
                            32 2.98
  32  0.664  0.333  0.563-  34 2.90  30 2.91  36 2.91  35 2.94  28 2.94  24 2.96  21 2.97  19 2.98
                            31 2.98
  33  0.003  0.664  0.563-  31 2.90  34 2.91  36 2.91  35 2.94  28 2.94  22 2.96  23 2.97  25 2.98
                            30 2.98
  34  0.333  0.664  0.563-  32 2.90  33 2.91  36 2.91  35 2.94  28 2.94  24 2.96  23 2.97  26 2.98
                            29 2.98
  35  0.667  0.667  0.563-  30 2.94  29 2.94  32 2.94  34 2.94  31 2.94  33 2.94  24 2.94  27 2.94
                            22 2.94
  36  0.333  0.333  0.556-  37 2.21  21 2.86  20 2.86  23 2.86  31 2.91  33 2.91  30 2.91  29 2.91
                            34 2.91  32 2.91
  37  0.333  0.333  0.656-  38 1.16  36 2.21
  38  0.333  0.333  0.708-  37 1.16
 
  LATTYP: Found a hexagonal cell.
 ALAT       =     8.7913665772
 C/A-ratio  =     2.5227160501
  
  Lattice vectors:
  
 A1 = (  -4.3956832886,  -7.6135467898,   0.0000000000)
 A2 = (   8.7913665771,   0.0000000000,   0.0000000000)
 A3 = (   0.0000000000,   0.0000000000,  22.1781215668)


Analysis of symmetry for initial positions (statically):
=====================================================================
 Subroutine PRICEL returns:
 Original cell was already a primitive cell.
 

 Routine SETGRP: Setting up the symmetry group for a 
 hexagonal supercell.


 Subroutine GETGRP returns: Found  6 space group operations
 (whereof  6 operations were pure point group operations)
 out of a pool of 24 trial point group operations.


The static configuration has the point symmetry C_3v.


Analysis of symmetry for dynamics (positions and initial velocities):
=====================================================================
 Subroutine PRICEL returns:
 Original cell was already a primitive cell.
 

 Routine SETGRP: Setting up the symmetry group for a 
 hexagonal supercell.


 Subroutine GETGRP returns: Found  6 space group operations
 (whereof  6 operations were pure point group operations)
 out of a pool of 24 trial point group operations.


The dynamic configuration has the point symmetry C_3v.


Analysis of constrained symmetry for selective dynamics:
=====================================================================
 Subroutine PRICEL returns:
 Original cell was already a primitive cell.
 

 Routine SETGRP: Setting up the symmetry group for a 
 hexagonal supercell.


 Subroutine GETGRP returns: Found  6 space group operations
 (whereof  6 operations were pure point group operations)
 out of a pool of 24 trial point group operations.


The constrained configuration has the point symmetry C_3v.


 Subroutine INISYM returns: Found  6 space group operations
 (whereof  6 operations are pure point group operations),
 and found     1 'primitive' translations


----------------------------------------------------------------------------------------

                                     Primitive cell                                     

  volume of cell :    1484.4589

  direct lattice vectors                    reciprocal lattice vectors
     8.791366577  0.000000000  0.000000000     0.113747958 -0.065672414  0.000000000
     4.395683289  7.613546790  0.000000000     0.000000000  0.131344829  0.000000000
     0.000000000  0.000000000 22.178121567     0.000000000  0.000000000  0.045089481

  length of vectors
     8.791366577  8.791366577 22.178121567     0.131344829  0.131344829  0.045089481

  position of ions in fractional coordinates (direct lattice)
     0.000000000  0.000000000  0.238171124
     0.333333313  0.000000000  0.238171124
     0.666666627  0.000000000  0.238171124
     0.000000000  0.333333343  0.238171124
     0.333333313  0.333333343  0.238171124
     0.666666687  0.333333343  0.238171124
     0.000000000  0.666666687  0.238171124
     0.333333313  0.666666687  0.238171124
     0.666666627  0.666666687  0.238171124
     0.111111104  0.111111112  0.346057051
     0.444444448  0.111111112  0.346057051
     0.777777791  0.111111112  0.346057051
     0.111111097  0.444444448  0.346057051
     0.444444418  0.444444448  0.346057051
     0.777777791  0.444444448  0.346057051
     0.111111104  0.777777791  0.346057051
     0.444444448  0.777777791  0.346057051
     0.777777791  0.777777791  0.346057051
     0.888897030  0.222205956  0.453522218
     0.221894504  0.221894519  0.452385298
     0.556210932  0.221894519  0.452385298
     0.888580280  0.555709890  0.453949877
     0.221894519  0.556210992  0.452385298
     0.555709890  0.555709890  0.453949877
     0.888897030  0.888897030  0.453522218
     0.222205926  0.888897030  0.453522218
     0.555709830  0.888580280  0.453949877
     0.000000000  0.000000000  0.561686945
     0.333428019  0.002724273  0.563406745
     0.663847648  0.002724273  0.563406745
     0.002724273  0.333428049  0.563406745
     0.663847708  0.333428049  0.563406745
     0.002724273  0.663847708  0.563406745
     0.333428019  0.663847708  0.563406745
     0.666666627  0.666666687  0.562647234
     0.333333313  0.333333343  0.556135064
     0.333333313  0.333333343  0.655833391
     0.333333313  0.333333343  0.708329078

  ion indices of the primitive-cell ions
   primitive index   ion index
                 1           1
                 2           2
                 3           3
                 4           4
                 5           5
                 6           6
                 7           7
                 8           8
                 9           9
                10          10
                11          11
                12          12
                13          13
                14          14
                15          15
                16          16
                17          17
                18          18
                19          19
                20          20
                21          21
                22          22
                23          23
                24          24
                25          25
                26          26
                27          27
                28          28
                29          29
                30          30
                31          31
                32          32
                33          33
                34          34
                35          35
                36          36
                37          37
                38          38

----------------------------------------------------------------------------------------

 
 
 KPOINTS: Automatic mesh                          

Automatic generation of k-mesh.
 Grid dimensions read from file:
 generate k-points for:    8    8    1

 Generating k-lattice:

  Cartesian coordinates                     Fractional coordinates (reciprocal lattice)
     0.014218495 -0.008209052  0.000000000     0.125000000  0.000000000  0.000000000
     0.000000000  0.016418104  0.000000000     0.000000000  0.125000000  0.000000000
     0.000000000  0.000000000  0.045089481     0.000000000  0.000000000  1.000000000

  Length of vectors
     0.016418104  0.016418104  0.045089481

  Shift w.r.t. Gamma in fractional coordinates (k-lattice)
     0.000000000  0.000000000  0.000000000

 TETIRR: Found     36 inequivalent tetrahedra from      384
 
 Subroutine IBZKPT returns following result:
 ===========================================
 
 Found     10 irreducible k-points:
 
 Following reciprocal coordinates:
            Coordinates               Weight
  0.000000  0.000000  0.000000      1.000000
  0.125000 -0.000000  0.000000      6.000000
  0.250000 -0.000000  0.000000      6.000000
  0.375000 -0.000000  0.000000      6.000000
  0.500000 -0.000000  0.000000      3.000000
  0.250000  0.125000  0.000000      6.000000
  0.375000  0.125000  0.000000     12.000000
  0.500000  0.125000  0.000000     12.000000
  0.500000  0.250000  0.000000      6.000000
 -0.375000  0.250000  0.000000      6.000000
 
 Following cartesian coordinates:
            Coordinates               Weight
  0.000000  0.000000  0.000000      1.000000
  0.014218 -0.008209  0.000000      6.000000
  0.028437 -0.016418  0.000000      6.000000
  0.042655 -0.024627  0.000000      6.000000
  0.056874 -0.032836  0.000000      3.000000
  0.028437 -0.000000  0.000000      6.000000
  0.042655 -0.008209  0.000000     12.000000
  0.056874 -0.016418  0.000000     12.000000
  0.056874 -0.000000  0.000000      6.000000
 -0.042655  0.057463  0.000000      6.000000
 


--------------------------------------------------------------------------------------------------------




 Dimension of arrays:
   k-points           NKPTS =     10   k-points in BZ     NKDIM =     10   number of bands    NBANDS=    252
   number of dos      NEDOS =    301   number of ions     NIONS =     38
   non local maximal  LDIM  =      6   non local SUM 2l+1 LMDIM =     18
   total plane-waves  NPLWV = 290304
   max r-space proj   IRMAX =   3793   max aug-charges    IRDMAX=  13329
   dimension x,y,z NGX =    48 NGY =   48 NGZ =  126
   dimension x,y,z NGXF=    96 NGYF=   96 NGZF=  252
   support grid    NGXF=    96 NGYF=   96 NGZF=  252
   ions per type =              35   1   1   1
   NGX,Y,Z   is equivalent  to a cutoff of   9.08,  9.08,  9.44 a.u.
   NGXF,Y,Z  is equivalent  to a cutoff of  18.15, 18.15, 18.89 a.u.

 SYSTEM =  unknown system                          
 POSCAR =  Ag-Hf-CO                                

 Startparameter for this run:
   NWRITE =      2    write-flag & timer
   PREC   = normal    normal or accurate (medium, high low for compatibility)
   ISTART =      0    job   : 0-new  1-cont  2-samecut
   ICHARG =     11    charge: 1-file 2-atom 10-const
   ISPIN  =      1    spin polarized calculation?
   LNONCOLLINEAR =      F non collinear calculations
   LSORBIT =      F    spin-orbit coupling
   INIWAV =      1    electr: 0-lowe 1-rand  2-diag
   LASPH  =      F    aspherical Exc in radial PAW
   METAGGA=      F    non-selfconsistent MetaGGA calc.

 Electronic Relaxation 1
   ENCUT  =  500.0 eV  36.75 Ry    6.06 a.u.  16.03 16.03 40.44*2*pi/ulx,y,z
   ENINI  =  500.0     initial cutoff
   ENAUG  =  644.9 eV  augmentation charge cutoff
   NELM   =    150;   NELMIN=  2; NELMDL= -5     # of ELM steps 
   EDIFF  = 0.1E-04   stopping-criterion for ELM
   LREAL  =      T    real-space projection
   NLSPLINE    = F    spline interpolate recip. space projectors
   LCOMPAT=      F    compatible to vasp.4.4
   GGA_COMPAT  = T    GGA compatible to vasp.4.4-vasp.4.6
   LMAXPAW     = -100 max onsite density
   LMAXMIX     =    2 max onsite mixed and CHGCAR
   VOSKOWN=      0    Vosko Wilk Nusair interpolation
   ROPT   =   -0.00050  -0.00050  -0.00050  -0.00050
 Ionic relaxation
   EDIFFG = -.1E-01   stopping-criterion for IOM
   NSW    =      0    number of steps for IOM
   NBLOCK =      1;   KBLOCK =      1    inner block; outer block 
   IBRION =     -1    ionic relax: 0-MD 1-quasi-New 2-CG
   NFREE  =      1    steps in history (QN), initial steepest desc. (CG)
   ISIF   =      2    stress and relaxation
   IWAVPR =     10    prediction:  0-non 1-charg 2-wave 3-comb
   ISYM   =      2    0-nonsym 1-usesym 2-fastsym
   LCORR  =      T    Harris-Foulkes like correction to forces

   POTIM  = 0.5000    time-step for ionic-motion
   TEIN   =    0.0    initial temperature
   TEBEG  =    0.0;   TEEND  =   0.0 temperature during run
   SMASS  =  -3.00    Nose mass-parameter (am)
   estimated Nose-frequenzy (Omega)   =  0.10E-29 period in steps = 0.13E+47 mass=  -0.177E-26a.u.
   SCALEE = 1.0000    scale energy and forces
   NPACO  =    256;   APACO  = 16.0  distance and # of slots for P.C.
   PSTRESS=    0.0 pullay stress

  Mass of Ions in am
   POMASS = 107.87178.49 12.01 16.00
  Ionic Valenz
   ZVAL   =  11.00  4.00  4.00  6.00
  Atomic Wigner-Seitz radii
   RWIGS  =  -1.00 -1.00 -1.00 -1.00
  virtual crystal weights 
   VCA    =   1.00  1.00  1.00  1.00
   NELECT =     399.0000    total number of electrons
   NUPDOWN=      -1.0000    fix difference up-down

 DOS related values:
   EMIN   =  10.00;   EMAX   =-10.00  energy-range for DOS
   EFERMI =   0.00
   ISMEAR =    -5;   SIGMA  =   0.10  broadening in eV -4-tet -1-fermi 0-gaus

 Electronic relaxation 2 (details)
   IALGO  =     68    algorithm
   LDIAG  =      T    sub-space diagonalisation (order eigenvalues)
   LSUBROT=      F    optimize rotation matrix (better conditioning)
   TURBO    =      0    0=normal 1=particle mesh
   IRESTART =      0    0=no restart 2=restart with 2 vectors
   NREBOOT  =      0    no. of reboots
   NMIN     =      0    reboot dimension
   EREF     =   0.00    reference energy to select bands
   IMIX   =      4    mixing-type and parameters
     AMIX     =   0.40;   BMIX     =  1.00
     AMIX_MAG =   1.60;   BMIX_MAG =  1.00
     AMIN     =   0.10
     WC   =   100.;   INIMIX=   1;  MIXPRE=   1;  MAXMIX= -45

 Intra band minimization:
   WEIMIN = 0.0000     energy-eigenvalue tresh-hold
   EBREAK =  0.99E-08  absolut break condition
   DEPER  =   0.30     relativ break condition  

   TIME   =   0.40     timestep for ELM

  volume/ion in A,a.u.               =      39.06       263.62
  Fermi-wavevector in a.u.,A,eV,Ry     =   1.056517  1.996527 15.187200  1.116228
  Thomas-Fermi vector in A             =   2.191755
 
 Write flags
   LWAVE        =      F    write WAVECAR
   LDOWNSAMPLE  =      F    k-point downsampling of WAVECAR
   LCHARG       =      F    write CHGCAR
   LVTOT        =      F    write LOCPOT, total local potential
   LVHAR        =      F    write LOCPOT, Hartree potential only
   LELF         =      F    write electronic localiz. function (ELF)
   LORBIT       =     10    0 simple, 1 ext, 2 COOP (PROOUT), +10 PAW based schemes


 Dipole corrections
   LMONO  =      F    monopole corrections only (constant potential shift)
   LDIPOL =      F    correct potential (dipole corrections)
   IDIPOL =      0    1-x, 2-y, 3-z, 4-all directions 
   EPSILON=  1.0000000 bulk dielectric constant

 Exchange correlation treatment:
   GGA     =    --    GGA type
   LEXCH   =     8    internal setting for exchange type
   VOSKOWN=      0    Vosko Wilk Nusair interpolation
   LHFCALC =     F    Hartree Fock is set to
   LHFONE  =     F    Hartree Fock one center treatment
   AEXX    =    0.0000 exact exchange contribution

 Linear response parameters
   LEPSILON=     F    determine dielectric tensor
   LRPA    =     F    only Hartree local field effects (RPA)
   LNABLA  =     F    use nabla operator in PAW spheres
   LVEL    =     F    velocity operator in full k-point grid
   LINTERFAST=   F  fast interpolation
   KINTER  =     0    interpolate to denser k-point grid
   CSHIFT  =0.1000    complex shift for real part using Kramers Kronig
   OMEGAMAX=  -1.0    maximum frequency
   DEG_THRESHOLD= 0.2000000E-02 threshold for treating states as degnerate
   RTIME   =   -0.100 relaxation time in fs
  (WPLASMAI=    0.000 imaginary part of plasma frequency in eV, 0.658/RTIME)
   DFIELD  = 0.0000000 0.0000000 0.0000000 field for delta impulse in time
 
 Orbital magnetization related:
   ORBITALMAG=     F  switch on orbital magnetization
   LCHIMAG   =     F  perturbation theory with respect to B field
   DQ        =  0.001000  dq finite difference perturbation B field
   LLRAUG    =     F  two centre corrections for induced B field



--------------------------------------------------------------------------------------------------------


 Static calculation
 charge density and potential remain constant during run
 non-spin polarized calculation
 RMM-DIIS sequential band-by-band and
  variant of blocked Davidson during initial phase
 perform sub-space diagonalisation
    before iterative eigenvector-optimisation
 no mixing
 using additional bands           52
 real space projection scheme for non local part
 use partial core corrections
 calculate Harris-corrections to forces 
   (improved forces if not selfconsistent)
 use gradient corrections 
 WARNING: stress and forces are not correct
  (second derivative of E(xc) not defined)
 use of overlap-Matrix (Vanderbilt PP)
 Fermi weights with tetrahedron method with Bloechl corrections


--------------------------------------------------------------------------------------------------------


  energy-cutoff  :      500.00
  volume of cell :     1484.46
      direct lattice vectors                 reciprocal lattice vectors
     8.791366577  0.000000000  0.000000000     0.113747958 -0.065672414  0.000000000
     4.395683289  7.613546790  0.000000000     0.000000000  0.131344829  0.000000000
     0.000000000  0.000000000 22.178121567     0.000000000  0.000000000  0.045089481

  length of vectors
     8.791366577  8.791366577 22.178121567     0.131344829  0.131344829  0.045089481


 
 k-points in units of 2pi/SCALE and weight: Automatic mesh                          
   0.00000000  0.00000000  0.00000000       0.016
   0.01421849 -0.00820905  0.00000000       0.094
   0.02843699 -0.01641810  0.00000000       0.094
   0.04265548 -0.02462716  0.00000000       0.094
   0.05687398 -0.03283621  0.00000000       0.047
   0.02843699 -0.00000000  0.00000000       0.094
   0.04265548 -0.00820905  0.00000000       0.188
   0.05687398 -0.01641810  0.00000000       0.188
   0.05687398 -0.00000000  0.00000000       0.094
  -0.04265548  0.05746336  0.00000000       0.094
 
 k-points in reciprocal lattice and weights: Automatic mesh                          
   0.00000000  0.00000000  0.00000000       0.016
   0.12500000 -0.00000000  0.00000000       0.094
   0.25000000 -0.00000000  0.00000000       0.094
   0.37500000 -0.00000000  0.00000000       0.094
   0.50000000 -0.00000000  0.00000000       0.047
   0.25000000  0.12500000  0.00000000       0.094
   0.37500000  0.12500000  0.00000000       0.188
   0.50000000  0.12500000  0.00000000       0.188
   0.50000000  0.25000000  0.00000000       0.094
  -0.37500000  0.25000000  0.00000000       0.094
 
 position of ions in fractional coordinates (direct lattice) 
   0.00000000  0.00000000  0.23817112
   0.33333331  0.00000000  0.23817112
   0.66666663  0.00000000  0.23817112
   0.00000000  0.33333334  0.23817112
   0.33333331  0.33333334  0.23817112
   0.66666669  0.33333334  0.23817112
   0.00000000  0.66666669  0.23817112
   0.33333331  0.66666669  0.23817112
   0.66666663  0.66666669  0.23817112
   0.11111110  0.11111111  0.34605705
   0.44444445  0.11111111  0.34605705
   0.77777779  0.11111111  0.34605705
   0.11111110  0.44444445  0.34605705
   0.44444442  0.44444445  0.34605705
   0.77777779  0.44444445  0.34605705
   0.11111110  0.77777779  0.34605705
   0.44444445  0.77777779  0.34605705
   0.77777779  0.77777779  0.34605705
   0.88889703  0.22220596  0.45352222
   0.22189450  0.22189452  0.45238530
   0.55621093  0.22189452  0.45238530
   0.88858028  0.55570989  0.45394988
   0.22189452  0.55621099  0.45238530
   0.55570989  0.55570989  0.45394988
   0.88889703  0.88889703  0.45352222
   0.22220593  0.88889703  0.45352222
   0.55570983  0.88858028  0.45394988
   0.00000000  0.00000000  0.56168695
   0.33342802  0.00272427  0.56340675
   0.66384765  0.00272427  0.56340675
   0.00272427  0.33342805  0.56340675
   0.66384771  0.33342805  0.56340675
   0.00272427  0.66384771  0.56340675
   0.33342802  0.66384771  0.56340675
   0.66666663  0.66666669  0.56264723
   0.33333331  0.33333334  0.55613506
   0.33333331  0.33333334  0.65583339
   0.33333331  0.33333334  0.70832908
 
 position of ions in cartesian coordinates  (Angst):
   0.00000000  0.00000000  5.28218814
   2.93045535  0.00000000  5.28218814
   5.86091070  0.00000000  5.28218814
   1.46522781  2.53784900  5.28218814
   4.39568315  2.53784900  5.28218814
   7.32613904  2.53784900  5.28218814
   2.93045562  5.07569801  5.28218814
   5.86091096  5.07569801  5.28218814
   8.79136632  5.07569801  5.28218814
   1.46522770  0.84594965  7.67489535
   4.39568332  0.84594965  7.67489535
   7.32613893  0.84594965  7.67489535
   2.93045542  3.38379860  7.67489535
   5.86091083  3.38379860  7.67489535
   8.79136671  3.38379860  7.67489535
   4.39568328  5.92164760  7.67489535
   7.32613890  5.92164760  7.67489535
  10.25659451  5.92164760  7.67489535
   8.79136665  1.69177544 10.05827089
   2.92613395  1.68940430 10.03305614
   5.86523223  1.68940430 10.03305614
  10.25455965  4.23092325 10.06775557
   4.39568342  4.23473842 10.03305614
   7.32817403  4.23092325 10.06775557
  11.72192946  6.76765913 10.05827089
   5.86080357  6.76765913 10.05827089
   8.79136631  6.76524754 10.06775557
   0.00000000  0.00000000 12.45716136
   2.94326298  0.02074138 12.49530329
   5.84810307  0.02074138 12.49530329
   1.48959418  2.53857005 12.49530329
   7.30177266  2.53857005 12.49530329
   2.94201436  5.05423559 12.49530329
   5.84935222  5.05423559 12.49530329
   8.79136632  5.07569801 12.47845876
   4.39568315  2.53784900 12.33403106
   4.39568315  2.53784900 14.54515267
   4.39568315  2.53784900 15.70940840
 


--------------------------------------------------------------------------------------------------------


 k-point   1 :   0.0000 0.0000 0.0000  plane waves:   37683
 k-point   2 :   0.1250-0.0000 0.0000  plane waves:   37658
 k-point   3 :   0.2500-0.0000 0.0000  plane waves:   37682
 k-point   4 :   0.3750-0.0000 0.0000  plane waves:   37686
 k-point   5 :   0.5000-0.0000 0.0000  plane waves:   37668
 k-point   6 :   0.2500 0.1250 0.0000  plane waves:   37666
 k-point   7 :   0.3750 0.1250 0.0000  plane waves:   37708
 k-point   8 :   0.5000 0.1250 0.0000  plane waves:   37726
 k-point   9 :   0.5000 0.2500 0.0000  plane waves:   37706
 k-point  10 :  -0.3750 0.2500 0.0000  plane waves:   37686

 maximum and minimum number of plane-waves per node :     37726    37658

 maximum number of plane-waves:     37726
 maximum index in each direction: 
   IXMAX=   16   IYMAX=   16   IZMAX=   40
   IXMIN=  -16   IYMIN=  -16   IZMIN=  -40


 serial   3D FFT for wavefunctions
 parallel 3D FFT for charge:
    minimum data exchange during FFTs selected (reduces bandwidth)


 total amount of memory used by VASP MPI-rank0   124869. kBytes
=======================================================================

   base      :      30000. kBytes
   nonlr-proj:      15971. kBytes
   fftplans  :       4330. kBytes
   grid      :      18659. kBytes
   one-center:        590. kBytes
   wavefun   :      55319. kBytes
 
     INWAV:  cpu time    0.0000: real time    0.0000
 initial charge density was supplied:
 number of electron     398.9999910 magnetization 
 keeping initial charge density in first step


--------------------------------------------------------------------------------------------------------


 Maximum index for non-local projection operator         3625
 Maximum index for augmentation-charges          705 (set IRDMAX)


--------------------------------------------------------------------------------------------------------


 First call to EWALD:  gamma=   0.155
 Maximum number of real-space cells 4x 4x 2
 Maximum number of reciprocal cells 2x 2x 5

    FEWALD:  cpu time    0.0013: real time    0.0014


--------------------------------------- Iteration      1(   1)  ---------------------------------------


    POTLOK:  cpu time    0.0546: real time    0.0549
    SETDIJ:  cpu time    0.0051: real time    0.0052
     EDDAV:  cpu time    7.2425: real time    7.2440
 BZINTS: Fermi energy:    9.449091;  399.000000 electrons
         Band energy: 0.118181E+04;  BLOECHL correction:   -0.025012
       DOS:  cpu time    0.0104: real time    0.0105
    --------------------------------------------
      LOOP:  cpu time    7.3126: real time    7.3145

 eigenvalue-minimisations  :  5040
 total energy-change (2. order) : 0.2432261E+04  (-0.1846088E+05)
 number of electron     398.9999910 magnetization 
 augmentation part      398.9999910 magnetization 

 Free energy of the ion-electron system (eV)
  ---------------------------------------------------
  alpha Z        PSCENC =       761.36415315
  Ewald energy   TEWEN  =     92653.03895382
  -Hartree energ DENC   =   -130312.00597476
  -exchange      EXHF   =         0.00000000
  -V(xc)+E(xc)   XCENC  =      -400.85000513
  PAW double counting   =     39474.13937435   -37884.82031858
  entropy T*S    EENTRO =         0.00000000
  eigenvalues    EBANDS =      1181.80838097
  atomic energy  EATOM  =     36959.58603593
  Solvation  Ediel_sol  =         0.00000000
  ---------------------------------------------------
  free energy    TOTEN  =      2432.26059976 eV

  energy without entropy =     2432.26059976  energy(sigma->0) =     2432.26059976


--------------------------------------------------------------------------------------------------------




--------------------------------------- Iteration      1(   2)  ---------------------------------------


     EDDAV:  cpu time    7.5465: real time    7.5467
 BZINTS: Fermi energy:    1.457482;  399.000000 electrons
         Band energy:-0.127342E+04;  BLOECHL correction:   -0.044621
       DOS:  cpu time    0.0100: real time    0.0100
    --------------------------------------------
      LOOP:  cpu time    7.5565: real time    7.5567

 eigenvalue-minimisations  :  5320
 total energy-change (2. order) :-0.2455228E+04  (-0.2343116E+04)
 number of electron     398.9999910 magnetization 
 augmentation part      398.9999910 magnetization 

 Free energy of the ion-electron system (eV)
  ---------------------------------------------------
  alpha Z        PSCENC =       761.36415315
  Ewald energy   TEWEN  =     92653.03895382
  -Hartree energ DENC   =   -130312.00597476
  -exchange      EXHF   =         0.00000000
  -V(xc)+E(xc)   XCENC  =      -400.85000513
  PAW double counting   =     39474.13937435   -37884.82031858
  entropy T*S    EENTRO =         0.00000000
  eigenvalues    EBANDS =     -1273.41931505
  atomic energy  EATOM  =     36959.58603593
  Solvation  Ediel_sol  =         0.00000000
  ---------------------------------------------------
  free energy    TOTEN  =       -22.96709626 eV

  energy without entropy =      -22.96709626  energy(sigma->0) =      -22.96709626


--------------------------------------------------------------------------------------------------------




--------------------------------------- Iteration      1(   3)  ---------------------------------------


     EDDAV:  cpu time    8.2543: real time    8.2545
 BZINTS: Fermi energy:    0.906558;  399.000000 electrons
         Band energy:-0.136292E+04;  BLOECHL correction:   -0.026148
       DOS:  cpu time    0.0101: real time    0.0101
    --------------------------------------------
      LOOP:  cpu time    8.2644: real time    8.2646

 eigenvalue-minimisations  :  5936
 total energy-change (2. order) :-0.8950077E+02  (-0.8779271E+02)
 number of electron     398.9999910 magnetization 
 augmentation part      398.9999910 magnetization 

 Free energy of the ion-electron system (eV)
  ---------------------------------------------------
  alpha Z        PSCENC =       761.36415315
  Ewald energy   TEWEN  =     92653.03895382
  -Hartree energ DENC   =   -130312.00597476
  -exchange      EXHF   =         0.00000000
  -V(xc)+E(xc)   XCENC  =      -400.85000513
  PAW double counting   =     39474.13937435   -37884.82031858
  entropy T*S    EENTRO =         0.00000000
  eigenvalues    EBANDS =     -1362.92008764
  atomic energy  EATOM  =     36959.58603593
  Solvation  Ediel_sol  =         0.00000000
  ---------------------------------------------------
  free energy    TOTEN  =      -112.46786885 eV

  energy without entropy =     -112.46786885  energy(sigma->0) =     -112.46786885


--------------------------------------------------------------------------------------------------------




--------------------------------------- Iteration      1(   4)  ---------------------------------------


     EDDAV:  cpu time    7.9578: real time    7.9579
 BZINTS: Fermi energy:    0.876326;  399.000000 electrons
         Band energy:-0.136444E+04;  BLOECHL correction:   -0.019453
       DOS:  cpu time    0.0101: real time    0.0101
    --------------------------------------------
      LOOP:  cpu time    7.9679: real time    7.9680

 eigenvalue-minimisations  :  5684
 total energy-change (2. order) :-0.1523810E+01  (-0.1520729E+01)
 number of electron     398.9999910 magnetization 
 augmentation part      398.9999910 magnetization 

 Free energy of the ion-electron system (eV)
  ---------------------------------------------------
  alpha Z        PSCENC =       761.36415315
  Ewald energy   TEWEN  =     92653.03895382
  -Hartree energ DENC   =   -130312.00597476
  -exchange      EXHF   =         0.00000000
  -V(xc)+E(xc)   XCENC  =      -400.85000513
  PAW double counting   =     39474.13937435   -37884.82031858
  entropy T*S    EENTRO =         0.00000000
  eigenvalues    EBANDS =     -1364.44389795
  atomic energy  EATOM  =     36959.58603593
  Solvation  Ediel_sol  =         0.00000000
  ---------------------------------------------------
  free energy    TOTEN  =      -113.99167916 eV

  energy without entropy =     -113.99167916  energy(sigma->0) =     -113.99167916


--------------------------------------------------------------------------------------------------------




--------------------------------------- Iteration      1(   5)  ---------------------------------------


     EDDAV:  cpu time    8.6033: real time    8.6034
 BZINTS: Fermi energy:    0.876134;  399.000000 electrons
         Band energy:-0.136448E+04;  BLOECHL correction:   -0.019447
       DOS:  cpu time    0.0102: real time    0.0102
    --------------------------------------------
      LOOP:  cpu time    8.6135: real time    8.6136

 eigenvalue-minimisations  :  6244
 total energy-change (2. order) :-0.3839019E-01  (-0.3838149E-01)
 number of electron     398.9999910 magnetization 
 augmentation part      398.9999910 magnetization 

 Free energy of the ion-electron system (eV)
  ---------------------------------------------------
  alpha Z        PSCENC =       761.36415315
  Ewald energy   TEWEN  =     92653.03895382
  -Hartree energ DENC   =   -130312.00597476
  -exchange      EXHF   =         0.00000000
  -V(xc)+E(xc)   XCENC  =      -400.85000513
  PAW double counting   =     39474.13937435   -37884.82031858
  entropy T*S    EENTRO =         0.00000000
  eigenvalues    EBANDS =     -1364.48228814
  atomic energy  EATOM  =     36959.58603593
  Solvation  Ediel_sol  =         0.00000000
  ---------------------------------------------------
  free energy    TOTEN  =      -114.03006935 eV

  energy without entropy =     -114.03006935  energy(sigma->0) =     -114.03006935


--------------------------------------------------------------------------------------------------------




--------------------------------------- Iteration      1(   6)  ---------------------------------------


    EDDIAG:  cpu time    1.4043: real time    1.4044
  RMM-DIIS:  cpu time    3.9983: real time    3.9983
    ORTHCH:  cpu time    0.2614: real time    0.2614
 BZINTS: Fermi energy:    0.876132;  399.000000 electrons
         Band energy:-0.136448E+04;  BLOECHL correction:   -0.019446
       DOS:  cpu time    0.0103: real time    0.0103
    --------------------------------------------
      LOOP:  cpu time    5.6744: real time    5.6746

 eigenvalue-minimisations  :  5110
 total energy-change (2. order) :-0.8159692E-03  (-0.8162421E-03)
 number of electron     398.9999910 magnetization 
 augmentation part      398.9999910 magnetization 

 Free energy of the ion-electron system (eV)
  ---------------------------------------------------
  alpha Z        PSCENC =       761.36415315
  Ewald energy   TEWEN  =     92653.03895382
  -Hartree energ DENC   =   -130312.00597476
  -exchange      EXHF   =         0.00000000
  -V(xc)+E(xc)   XCENC  =      -400.85000513
  PAW double counting   =     39474.13937435   -37884.82031858
  entropy T*S    EENTRO =         0.00000000
  eigenvalues    EBANDS =     -1364.48310411
  atomic energy  EATOM  =     36959.58603593
  Solvation  Ediel_sol  =         0.00000000
  ---------------------------------------------------
  free energy    TOTEN  =      -114.03088532 eV

  energy without entropy =     -114.03088532  energy(sigma->0) =     -114.03088532


--------------------------------------------------------------------------------------------------------




--------------------------------------- Iteration      1(   7)  ---------------------------------------


    EDDIAG:  cpu time    1.4032: real time    1.4034
  RMM-DIIS:  cpu time    5.6048: real time    5.6048
    ORTHCH:  cpu time    0.2742: real time    0.2742
 BZINTS: Fermi energy:    0.876131;  399.000000 electrons
         Band energy:-0.136448E+04;  BLOECHL correction:   -0.019446
       DOS:  cpu time    0.0099: real time    0.0099
    --------------------------------------------
      LOOP:  cpu time    7.2921: real time    7.2923

 eigenvalue-minimisations  :  7254
 total energy-change (2. order) :-0.2872678E-03  (-0.2870797E-03)
 number of electron     398.9999910 magnetization 
 augmentation part      398.9999910 magnetization 

 Free energy of the ion-electron system (eV)
  ---------------------------------------------------
  alpha Z        PSCENC =       761.36415315
  Ewald energy   TEWEN  =     92653.03895382
  -Hartree energ DENC   =   -130312.00597476
  -exchange      EXHF   =         0.00000000
  -V(xc)+E(xc)   XCENC  =      -400.85000513
  PAW double counting   =     39474.13937435   -37884.82031858
  entropy T*S    EENTRO =         0.00000000
  eigenvalues    EBANDS =     -1364.48339138
  atomic energy  EATOM  =     36959.58603593
  Solvation  Ediel_sol  =         0.00000000
  ---------------------------------------------------
  free energy    TOTEN  =      -114.03117259 eV

  energy without entropy =     -114.03117259  energy(sigma->0) =     -114.03117259


--------------------------------------------------------------------------------------------------------




--------------------------------------- Iteration      1(   8)  ---------------------------------------


    EDDIAG:  cpu time    1.4063: real time    1.4063
  RMM-DIIS:  cpu time    4.2298: real time    4.2299
    ORTHCH:  cpu time    0.2617: real time    0.2617
 BZINTS: Fermi energy:    0.876131;  399.000000 electrons
         Band energy:-0.136448E+04;  BLOECHL correction:   -0.019446
       DOS:  cpu time    0.0101: real time    0.0101
    --------------------------------------------
      LOOP:  cpu time    5.9079: real time    5.9106

 eigenvalue-minimisations  :  5199
 total energy-change (2. order) :-0.1542552E-04  (-0.1614661E-04)
 number of electron     398.9999910 magnetization 
 augmentation part      398.9999910 magnetization 

 Free energy of the ion-electron system (eV)
  ---------------------------------------------------
  alpha Z        PSCENC =       761.36415315
  Ewald energy   TEWEN  =     92653.03895382
  -Hartree energ DENC   =   -130312.00597476
  -exchange      EXHF   =         0.00000000
  -V(xc)+E(xc)   XCENC  =      -400.85000513
  PAW double counting   =     39474.13937435   -37884.82031858
  entropy T*S    EENTRO =         0.00000000
  eigenvalues    EBANDS =     -1364.48340680
  atomic energy  EATOM  =     36959.58603593
  Solvation  Ediel_sol  =         0.00000000
  ---------------------------------------------------
  free energy    TOTEN  =      -114.03118801 eV

  energy without entropy =     -114.03118801  energy(sigma->0) =     -114.03118801


--------------------------------------------------------------------------------------------------------




--------------------------------------- Iteration      1(   9)  ---------------------------------------


    EDDIAG:  cpu time    1.4053: real time    1.4081
  RMM-DIIS:  cpu time    3.3865: real time    3.3865
    ORTHCH:  cpu time    0.2612: real time    0.2612
 BZINTS: Fermi energy:    0.876131;  399.000000 electrons
         Band energy:-0.136448E+04;  BLOECHL correction:   -0.019446
       DOS:  cpu time    0.0103: real time    0.0103
    --------------------------------------------
      LOOP:  cpu time    5.0633: real time    5.0635

 eigenvalue-minimisations  :  3645
 total energy-change (2. order) :-0.2632412E-05  (-0.2739132E-05)
 number of electron     398.9999910 magnetization 
 augmentation part      398.9999910 magnetization 

 Free energy of the ion-electron system (eV)
  ---------------------------------------------------
  alpha Z        PSCENC =       761.36415315
  Ewald energy   TEWEN  =     92653.03895382
  -Hartree energ DENC   =   -130312.00597476
  -exchange      EXHF   =         0.00000000
  -V(xc)+E(xc)   XCENC  =      -400.85000513
  PAW double counting   =     39474.13937435   -37884.82031858
  entropy T*S    EENTRO =         0.00000000
  eigenvalues    EBANDS =     -1364.48340944
  atomic energy  EATOM  =     36959.58603593
  Solvation  Ediel_sol  =         0.00000000
  ---------------------------------------------------
  free energy    TOTEN  =      -114.03119064 eV

  energy without entropy =     -114.03119064  energy(sigma->0) =     -114.03119064


--------------------------------------------------------------------------------------------------------




 average (electrostatic) potential at core
  the test charge radii are     1.1249  1.2481  0.6991  0.7215
  (the norm of the test charge is              1.0000)
       1 -78.0309       2 -78.0358       3 -78.0357       4 -78.0358       5 -78.0134
       6 -78.0355       7 -78.0357       8 -78.0355       9 -78.0273      10 -78.2852
      11 -78.2693      12 -78.2850      13 -78.2693      14 -78.2691      15 -78.2542
      16 -78.2850      17 -78.2542      18 -78.2543      19 -78.2695      20 -78.5374
      21 -78.5375      22 -78.2238      23 -78.5375      24 -78.2238      25 -78.2695
      26 -78.2695      27 -78.2238      28 -78.0513      29 -78.1925      30 -78.1926
      31 -78.1925      32 -78.1925      33 -78.1926      34 -78.1925      35 -78.0221
      36 -41.1436      37 -56.0196      38 -77.1948
 
 
 
 E-fermi :   0.8761     XC(G=0):  -6.0675     alpha+bet : -5.7147

 Fermi energy:         0.8761313868

 k-point     1 :       0.0000    0.0000    0.0000
  band No.  band energies     occupation 
      1     -22.8721      2.00000
      2      -8.3058      2.00000
      3      -6.3401      2.00000
      4      -5.6793      2.00000
      5      -5.6310      2.00000
      6      -5.6309      2.00000
      7      -5.3327      2.00000
      8      -5.1334      2.00000
      9      -5.0374      2.00000
     10      -5.0374      2.00000
     11      -5.0351      2.00000
     12      -5.0165      2.00000
     13      -5.0165      2.00000
     14      -4.9977      2.00000
     15      -4.9864      2.00000
     16      -4.9669      2.00000
     17      -4.9669      2.00000
     18      -4.9637      2.00000
     19      -4.9544      2.00000
     20      -4.9544      2.00000
     21      -4.9021      2.00000
     22      -4.8336      2.00000
     23      -4.8336      2.00000
     24      -4.8028      2.00000
     25      -4.7907      2.00000
     26      -4.7859      2.00000
     27      -4.7859      2.00000
     28      -4.6655      2.00000
     29      -4.6150      2.00000
     30      -4.6150      2.00000
     31      -4.6150      2.00000
     32      -4.6093      2.00000
     33      -4.6093      2.00000
     34      -4.5976      2.00000
     35      -4.5687      2.00000
     36      -4.5569      2.00000
     37      -4.5569      2.00000
     38      -4.5432      2.00000
     39      -4.5432      2.00000
     40      -4.4951      2.00000
     41      -4.4709      2.00000
     42      -4.4709      2.00000
     43      -4.4651      2.00000
     44      -4.4328      2.00000
     45      -4.4328      2.00000
     46      -4.2373      2.00000
     47      -4.2372      2.00000
     48      -4.2187      2.00000
     49      -4.2095      2.00000
     50      -4.2095      2.00000
     51      -4.2075      2.00000
     52      -4.2067      2.00000
     53      -4.2067      2.00000
     54      -4.1846      2.00000
     55      -4.1846      2.00000
     56      -4.0526      2.00000
     57      -4.0522      2.00000
     58      -4.0249      2.00000
     59      -4.0239      2.00000
     60      -3.9021      2.00000
     61      -3.8787      2.00000
     62      -3.8787      2.00000
     63      -3.8440      2.00000
     64      -3.8401      2.00000
     65      -3.8401      2.00000
     66      -3.8226      2.00000
     67      -3.8142      2.00000
     68      -3.8142      2.00000
     69      -3.7690      2.00000
     70      -3.7690      2.00000
     71      -3.6846      2.00000
     72      -3.6846      2.00000
     73      -3.6749      2.00000
     74      -3.6749      2.00000
     75      -3.6739      2.00000
     76      -3.6684      2.00000
     77      -3.6684      2.00000
     78      -3.6682      2.00000
     79      -3.6440      2.00000
     80      -3.6440      2.00000
     81      -3.6351      2.00000
     82      -3.6107      2.00000
     83      -3.6106      2.00000
     84      -3.6106      2.00000
     85      -3.5789      2.00000
     86      -3.5789      2.00000
     87      -3.5536      2.00000
     88      -3.5536      2.00000
     89      -3.5389      2.00000
     90      -3.4832      2.00000
     91      -3.4832      2.00000
     92      -3.4517      2.00000
     93      -3.4517      2.00000
     94      -3.4476      2.00000
     95      -3.4445      2.00000
     96      -3.4445      2.00000
     97      -3.3937      2.00000
     98      -3.3937      2.00000
     99      -3.3536      2.00000
    100      -3.3364      2.00000
    101      -3.3364      2.00000
    102      -3.3155      2.00000
    103      -3.3155      2.00000
    104      -3.1638      2.00000
    105      -3.1638      2.00000
    106      -3.1544      2.00000
    107      -3.1277      2.00000
    108      -3.1277      2.00000
    109      -3.0956      2.00000
    110      -3.0956      2.00000
    111      -3.0841      2.00000
    112      -3.0602      2.00000
    113      -3.0535      2.00000
    114      -3.0535      2.00000
    115      -3.0171      2.00000
    116      -2.9877      2.00000
    117      -2.9865      2.00000
    118      -2.9864      2.00000
    119      -2.9149      2.00000
    120      -2.8909      2.00000
    121      -2.8909      2.00000
    122      -2.8555      2.00000
    123      -2.8555      2.00000
    124      -2.8145      2.00000
    125      -2.8145      2.00000
    126      -2.7912      2.00000
    127      -2.7912      2.00000
    128      -2.7699      2.00000
    129      -2.7693      2.00000
    130      -2.7471      2.00000
    131      -2.7471      2.00000
    132      -2.7313      2.00000
    133      -2.7291      2.00000
    134      -2.7291      2.00000
    135      -2.7223      2.00000
    136      -2.7223      2.00000
    137      -2.7130      2.00000
    138      -2.6415      2.00000
    139      -2.6414      2.00000
    140      -2.5918      2.00000
    141      -2.5906      2.00000
    142      -2.5906      2.00000
    143      -2.5555      2.00000
    144      -2.5456      2.00000
    145      -2.5456      2.00000
    146      -2.5404      2.00000
    147      -2.5149      2.00000
    148      -2.5149      2.00000
    149      -2.5086      2.00000
    150      -2.4842      2.00000
    151      -2.4842      2.00000
    152      -2.4835      2.00000
    153      -2.4692      2.00000
    154      -2.4533      2.00000
    155      -2.4324      2.00000
    156      -2.4272      2.00000
    157      -2.4272      2.00000
    158      -2.4209      2.00000
    159      -2.4209      2.00000
    160      -2.3915      2.00000
    161      -2.3860      2.00000
    162      -2.3860      2.00000
    163      -2.3837      2.00000
    164      -2.3319      2.00000
    165      -2.3318      2.00000
    166      -2.3162      2.00000
    167      -2.3137      2.00000
    168      -2.3055      2.00000
    169      -2.3040      2.00000
    170      -2.3040      2.00000
    171      -2.3016      2.00000
    172      -2.2970      2.00000
    173      -2.2970      2.00000
    174      -2.2525      2.00000
    175      -2.2525      2.00000
    176      -2.2292      2.00000
    177      -2.2291      2.00000
    178      -2.1650      2.00000
    179      -2.1549      2.00000
    180      -2.1549      2.00000
    181      -2.1314      2.00000
    182      -2.1314      2.00000
    183      -2.1300      2.00000
    184      -2.0419      2.00000
    185      -2.0419      2.00000
    186      -2.0389      2.00000
    187      -2.0327      2.00000
    188      -2.0326      2.00000
    189      -1.9908      2.00000
    190      -1.2981      2.00000
    191      -1.2980      2.00000
    192      -1.2673      2.00000
    193      -1.2673      2.00000
    194      -1.2434      2.00000
    195      -1.1261      2.00000
    196      -0.0205      2.00000
    197       0.2434      2.00000
    198       0.2434      2.00000
    199       0.2917      2.00000
    200       0.4076      2.00000
    201       0.4076      2.00000
    202       0.4814      2.71922
    203       1.2144      0.00000
    204       1.2144      0.00000
    205       1.2435      0.00000
    206       1.9452      0.00000
    207       1.9452      0.00000
    208       2.2480      0.00000
    209       2.7016      0.00000
    210       2.7017      0.00000
    211       2.7017      0.00000
    212       3.2237      0.00000
    213       3.2238      0.00000
    214       3.8738      0.00000
    215       3.8738      0.00000
    216       4.0472      0.00000
    217       4.1296      0.00000
    218       4.3649      0.00000
    219       4.3649      0.00000
    220       4.6584      0.00000
    221       4.6584      0.00000
    222       4.8035      0.00000
    223       5.0555      0.00000
    224       5.0556      0.00000
    225       5.0906      0.00000
    226       5.1004      0.00000
    227       5.2373      0.00000
    228       5.2851      0.00000
    229       5.2851      0.00000
    230       5.2902      0.00000
    231       5.4234      0.00000
    232       5.4234      0.00000
    233       5.5877      0.00000
    234       5.7838      0.00000
    235       5.7838      0.00000
    236       6.4278      0.00000
    237       6.6514      0.00000
    238       6.7411      0.00000
    239       6.7411      0.00000
    240       6.7418      0.00000
    241       6.7957      0.00000
    242       6.9457      0.00000
    243       6.9466      0.00000
    244       7.0589      0.00000
    245       7.0598      0.00000
    246       7.1219      0.00000
    247       7.1716      0.00000
    248       7.1728      0.00000
    249       7.1757      0.00000
    250       7.3331      0.00000
    251       7.4291      0.00000
    252       7.4728      0.00000

 k-point     2 :       0.1250   -0.0000    0.0000
  band No.  band energies     occupation 
      1     -22.8721      2.00000
      2      -8.3056      2.00000
      3      -6.2965      2.00000
      4      -5.6603      2.00000
      5      -5.6311      2.00000
      6      -5.6309      2.00000
      7      -5.3048      2.00000
      8      -5.1156      2.00000
[...]
  0.000   0.000   0.000   0.000   0.000   0.000   0.000   0.000   0.000   0.000   0.000   0.000   0.000   0.000   0.000   0.000
  0.000   0.000   0.000   0.000   0.000   0.000   0.000   0.000   0.000   0.000   0.000   0.000   0.000   0.000   0.000   0.000
  0.000   0.000   0.000   0.000   0.000   0.000   0.000   0.000   0.000   0.000   1.000   0.000   0.000   0.000   0.000   0.000
  0.000   0.000   0.000   0.000   0.000   0.000   0.000   0.000   0.000   0.000   0.000   0.000   0.000   0.000   0.000   0.000
  0.000   0.000   0.000   0.000   0.000   0.000   0.000   0.000   0.000   0.000   0.000   0.000   0.000   0.000   0.000   0.000
  0.000   0.000   0.000   0.000   0.000   0.000   0.000   0.000   0.000   0.000   0.000   0.000   0.000   0.000   0.000   0.000
  0.000   0.000   0.000   0.000   0.000   0.000   0.000   0.000   0.000   0.000   0.000   0.000   0.000   0.000   0.000   0.000
  0.000   0.000   0.000   0.000   0.000   0.000   0.000   0.000   0.000   0.000   0.000   0.000   0.000   0.000   0.000   0.000
  0.000   0.000   0.000   0.000   0.000   0.000   0.000   0.000   0.000   0.000   0.000   0.000   0.000   0.000   0.000   0.000
  0.000   0.000   0.000   0.000   0.000   0.000   0.000   0.000   0.000   0.000   0.000   0.000   0.000   0.000   0.000   0.000


------------------------ aborting loop because EDIFF is reached ----------------------------------------





 total charge

# of ion       s       p       d       tot
------------------------------------------
    1        0.423   0.199   9.178   9.800
    2        0.412   0.204   9.178   9.794
    3        0.412   0.204   9.178   9.794
    4        0.412   0.204   9.178   9.794
    5        0.423   0.203   9.174   9.800
    6        0.412   0.204   9.178   9.794
    7        0.412   0.204   9.178   9.794
    8        0.412   0.204   9.178   9.794
    9        0.419   0.200   9.178   9.797
   10        0.411   0.270   9.161   9.841
   11        0.407   0.267   9.168   9.843
   12        0.411   0.270   9.161   9.841
   13        0.407   0.267   9.168   9.843
   14        0.407   0.267   9.168   9.843
   15        0.403   0.268   9.164   9.835
   16        0.411   0.270   9.161   9.841
   17        0.403   0.268   9.164   9.835
   18        0.403   0.268   9.164   9.835
   19        0.403   0.266   9.163   9.832
   20        0.444   0.298   9.132   9.873
   21        0.444   0.298   9.132   9.873
   22        0.396   0.270   9.165   9.830
   23        0.444   0.298   9.132   9.873
   24        0.396   0.270   9.165   9.830
   25        0.403   0.266   9.163   9.832
   26        0.403   0.266   9.163   9.832
   27        0.396   0.270   9.165   9.830
   28        0.407   0.204   9.175   9.785
   29        0.450   0.221   9.146   9.817
   30        0.450   0.221   9.146   9.817
   31        0.450   0.221   9.146   9.817
   32        0.450   0.221   9.146   9.817
   33        0.450   0.221   9.146   9.817
   34        0.450   0.221   9.146   9.817
   35        0.405   0.204   9.176   9.785
   36        0.549   0.514   1.903   2.966
   37        0.978   1.525   0.000   2.503
   38        1.617   3.523   0.000   5.139
--------------------------------------------------
tot         17.781  14.038 322.587 354.405
 
    CHARGE:  cpu time    0.3386: real time    0.3387
    FORLOC:  cpu time    0.0110: real time    0.0110
    FORNL :  cpu time    1.4928: real time    1.4931
    STRESS:  cpu time    4.4638: real time    4.4641
    FORCOR:  cpu time    0.0553: real time    0.0553
    FORHAR:  cpu time    0.0176: real time    0.0177
    OFIELD:  cpu time    0.0002: real time    0.0002

  FORCE on cell =-STRESS in cart. coord.  units (eV):
  Direction    XX          YY          ZZ          XY          YZ          ZX
  --------------------------------------------------------------------------------------
  Alpha Z   761.36415   761.36415   761.36415
  Ewald  114929.00135114929.00124************    -0.00000    -0.00001     0.00002
  Hartree125192.75988125192.75984************    -0.00000    -0.00000     0.00000
  E(xc)   -2088.78519 -2088.78523 -2094.41908     0.00004     0.00000     0.00000
  Local  ************************250725.69478     0.00059    -0.00005    -0.00015
  n-local  -336.85469  -319.61213  -338.96410     9.78233    -0.47029     0.51429
  augment  3224.96091  3224.96114  3239.05786    -0.00020     0.00000    -0.00001
  Kinetic  4990.14337  4989.45035  5004.12051     0.45930     0.76083    -0.45870
  Fock        0.00000     0.00000     0.00000     0.00000     0.00000     0.00000
  -------------------------------------------------------------------------------------
  Total      -8.58647    -8.58647    -0.76588    -0.00000     0.00000     0.00000
  in kB      -9.26738    -9.26738    -0.82662    -0.00000     0.00000     0.00000
  external pressure =       -6.45 kB  Pullay stress =        0.00 kB


 VOLUME and BASIS-vectors are now :
 -----------------------------------------------------------------------------
  energy-cutoff  :      500.00
  volume of cell :     1484.46
      direct lattice vectors                 reciprocal lattice vectors
     8.791366577  0.000000000  0.000000000     0.113747958 -0.065672414  0.000000000
     4.395683289  7.613546790  0.000000000     0.000000000  0.131344829  0.000000000
     0.000000000  0.000000000 22.178121567     0.000000000  0.000000000  0.045089481

  length of vectors
     8.791366577  8.791366577 22.178121567     0.131344829  0.131344829  0.045089481


 FORCES acting on ions
    electron-ion (+dipol)            ewald-force                    non-local-force                 convergence-correction
 -----------------------------------------------------------------------------------------------
   0.459E-04 -.282E-04 0.248E+04   -.953E-04 0.592E-04 -.248E+04   0.109E-16 0.436E-18 -.176E+01   -.833E-04 -.155E-03 0.998E-01
   -.228E+00 0.288E-01 0.248E+04   0.314E+00 0.979E-01 -.248E+04   0.125E-01 0.123E+00 -.167E+01   -.881E-01 -.243E+00 0.217E+00
   0.228E+00 0.288E-01 0.248E+04   -.314E+00 0.979E-01 -.248E+04   -.125E-01 0.123E+00 -.167E+01   0.875E-01 -.241E+00 0.218E+00
   -.890E-01 -.212E+00 0.248E+04   0.242E+00 0.223E+00 -.248E+04   0.113E+00 -.507E-01 -.167E+01   -.254E+00 0.455E-01 0.217E+00
   -.625E-05 -.192E-04 0.248E+04   0.980E-04 -.199E-05 -.248E+04   0.916E-18 -.587E-18 -.966E+00   0.618E-02 0.378E-02 0.577E+00
   0.890E-01 -.212E+00 0.248E+04   -.242E+00 0.223E+00 -.248E+04   -.113E+00 -.507E-01 -.167E+01   0.253E+00 0.464E-01 0.218E+00
   0.139E+00 0.183E+00 0.248E+04   -.722E-01 -.321E+00 -.248E+04   0.100E+00 -.724E-01 -.167E+01   -.165E+00 0.197E+00 0.218E+00
   -.139E+00 0.183E+00 0.248E+04   0.721E-01 -.321E+00 -.248E+04   -.100E+00 -.724E-01 -.167E+01   0.166E+00 0.196E+00 0.218E+00
   0.370E-04 -.129E-04 0.248E+04   0.792E-04 -.642E-04 -.248E+04   0.373E-17 0.283E-17 -.162E+01   -.663E-02 -.341E-02 0.213E+00
   -.105E+01 -.609E+00 0.827E+03   0.125E+01 0.721E+00 -.826E+03   -.246E+00 -.142E+00 -.647E+00   0.643E-02 0.374E-02 0.754E-01
   -.282E-04 -.136E+01 0.820E+03   0.400E-04 0.137E+01 -.820E+03   0.330E-12 0.503E-01 -.167E+00   0.617E-02 -.983E-01 0.852E-01
   0.105E+01 -.609E+00 0.827E+03   -.125E+01 0.721E+00 -.826E+03   0.246E+00 -.142E+00 -.647E+00   -.770E-02 0.438E-02 0.745E-01
   -.118E+01 0.682E+00 0.820E+03   0.119E+01 -.685E+00 -.820E+03   0.435E-01 -.251E-01 -.167E+00   -.821E-01 0.545E-01 0.852E-01
   0.118E+01 0.682E+00 0.820E+03   -.119E+01 -.685E+00 -.820E+03   -.435E-01 -.251E-01 -.167E+00   0.924E-01 0.536E-01 0.835E-01
   0.150E-04 -.113E+01 0.825E+03   -.107E-03 0.102E+01 -.824E+03   0.256E-12 0.389E-01 -.654E+00   -.126E-02 0.579E-01 0.352E-01
   -.781E-05 0.122E+01 0.827E+03   0.205E-04 -.144E+01 -.826E+03   0.187E-11 0.285E+00 -.647E+00   -.962E-04 -.893E-02 0.745E-01
   -.978E+00 0.565E+00 0.825E+03   0.886E+00 -.512E+00 -.824E+03   0.337E-01 -.195E-01 -.654E+00   0.494E-01 -.300E-01 0.352E-01
   0.978E+00 0.564E+00 0.825E+03   -.886E+00 -.512E+00 -.824E+03   -.337E-01 -.195E-01 -.654E+00   -.493E-01 -.285E-01 0.360E-01
   0.378E-04 -.665E+01 -.831E+03   -.125E-03 0.666E+01 0.831E+03   0.304E-13 0.463E-02 0.761E+00   0.109E-02 -.350E-02 -.256E+00
   -.384E+02 -.222E+02 -.866E+03   0.395E+02 0.228E+02 0.867E+03   -.104E+01 -.599E+00 -.729E+00   -.840E-01 -.485E-01 -.157E+00
   0.384E+02 -.222E+02 -.866E+03   -.395E+02 0.228E+02 0.867E+03   0.104E+01 -.599E+00 -.729E+00   0.731E-01 -.490E-01 -.158E+00
   -.172E+02 0.991E+01 -.838E+03   0.170E+02 -.982E+01 0.838E+03   0.121E+00 -.698E-01 0.391E+00   0.269E-01 -.151E-01 -.316E+00
   -.494E-04 0.444E+02 -.866E+03   0.350E-04 -.456E+02 0.867E+03   0.787E-11 0.120E+01 -.729E+00   -.555E-02 0.885E-01 -.158E+00
   0.172E+02 0.991E+01 -.838E+03   -.170E+02 -.982E+01 0.838E+03   -.121E+00 -.698E-01 0.391E+00   -.253E-01 -.145E-01 -.316E+00
   0.576E+01 0.333E+01 -.831E+03   -.577E+01 -.333E+01 0.831E+03   -.401E-02 -.231E-02 0.761E+00   0.296E-02 0.156E-02 -.257E+00
   -.576E+01 0.333E+01 -.831E+03   0.577E+01 -.333E+01 0.831E+03   0.401E-02 -.231E-02 0.761E+00   -.279E-02 0.258E-02 -.256E+00
   0.192E-04 -.198E+02 -.838E+03   0.110E-03 0.196E+02 0.838E+03   0.916E-12 0.140E+00 0.391E+00   -.311E-03 0.309E-01 -.316E+00
   0.548E-04 -.352E-04 -.241E+04   -.115E-03 0.768E-04 0.241E+04   0.166E-17 -.838E-18 0.175E+01   0.264E-03 0.177E-04 -.407E+00
   -.185E+02 -.369E+02 -.239E+04   0.194E+02 0.382E+02 0.239E+04   -.951E+00 -.143E+01 0.823E+00   -.195E-01 0.931E-02 -.508E+00
   0.185E+02 -.369E+02 -.239E+04   -.194E+02 0.382E+02 0.239E+04   0.951E+00 -.143E+01 0.823E+00   0.186E-01 0.102E-01 -.508E+00
   -.412E+02 0.243E+01 -.239E+04   0.428E+02 -.230E+01 0.239E+04   -.171E+01 -.109E+00 0.823E+00   -.146E-02 -.214E-01 -.508E+00
   0.412E+02 0.243E+01 -.239E+04   -.428E+02 -.230E+01 0.239E+04   0.171E+01 -.109E+00 0.823E+00   0.155E-02 -.204E-01 -.507E+00
   -.227E+02 0.344E+02 -.239E+04   0.234E+02 -.359E+02 0.239E+04   -.763E+00 0.154E+01 0.823E+00   0.186E-01 0.116E-01 -.508E+00
   0.227E+02 0.344E+02 -.239E+04   -.234E+02 -.359E+02 0.239E+04   0.763E+00 0.154E+01 0.823E+00   -.173E-01 0.116E-01 -.507E+00
   0.253E-04 -.126E-04 -.242E+04   0.103E-03 -.654E-04 0.241E+04   0.250E-17 0.290E-17 0.190E+01   -.633E-02 -.322E-02 -.343E+00
   -.137E-04 0.264E-05 -.797E+03   0.378E-04 0.404E-05 0.799E+03   -.318E-17 -.127E-17 -.133E+01   0.112E-03 0.713E-04 -.196E+00
   0.327E-05 -.789E-04 -.722E+03   0.122E-04 0.104E-06 0.703E+03   0.211E-18 0.652E-18 0.196E+02   0.100E-02 0.614E-03 -.611E-01
   0.237E-03 -.937E-04 -.136E+04   0.631E-05 0.314E-08 0.142E+04   0.340E-18 0.214E-19 -.589E+02   0.364E-02 0.223E-02 0.960E-01
 -----------------------------------------------------------------------------------------------
   0.578E-03 -.853E-03 0.530E+02   0.331E-13 -.118E-13 0.682E-12   0.222E-15 0.668E-15 -.495E+02   -.141E-02 0.254E-02 -.337E+01
 
 
 POSITION                                       TOTAL-FORCE (eV/Angst)
 -----------------------------------------------------------------------------------
      0.00000      0.00000      5.28219        -0.000000      0.000000     -0.013612
      2.93046      0.00000      5.28219         0.010899      0.007544      0.026440
      5.86091      0.00000      5.28219        -0.010899      0.007544      0.026440
      1.46523      2.53785      5.28219         0.011983      0.005667      0.026440
      4.39568      2.53785      5.28219        -0.000000     -0.000000     -0.008887
      7.32614      2.53785      5.28219        -0.011983      0.005667      0.026440
      2.93046      5.07570      5.28219         0.001084     -0.013211      0.026440
      5.86091      5.07570      5.28219        -0.001084     -0.013211      0.026440
      8.79137      5.07570      5.28219        -0.000000     -0.000000      0.006124
      1.46523      0.84595      7.67490        -0.045212     -0.026103     -0.074988
      4.39568      0.84595      7.67490        -0.000000     -0.044923     -0.073330
      7.32614      0.84595      7.67490         0.045212     -0.026103     -0.074988
      2.93046      3.38380      7.67490        -0.038904      0.022461     -0.073330
      5.86091      3.38380      7.67490         0.038904      0.022461     -0.073330
      8.79137      3.38380      7.67490        -0.000000     -0.009327      0.011399
      4.39568      5.92165      7.67490         0.000000      0.052206     -0.074988
      7.32614      5.92165      7.67490        -0.008077      0.004663      0.011399
     10.25659      5.92165      7.67490         0.008077      0.004663      0.011399
      8.79137      1.69178     10.05827         0.000000      0.004550      0.044979
      2.92613      1.68940     10.03306        -0.064992     -0.037523     -0.092760
      5.86523      1.68940     10.03306         0.064992     -0.037523     -0.092760
     10.25456      4.23092     10.06776         0.002078     -0.001200      0.044561
      4.39568      4.23474     10.03306         0.000000      0.075047     -0.092760
      7.32817      4.23092     10.06776        -0.002078     -0.001200      0.044561
     11.72193      6.76766     10.05827        -0.003940     -0.002275      0.044979
      5.86080      6.76766     10.05827         0.003940     -0.002275      0.044979
      8.79137      6.76525     10.06776         0.000000      0.002400      0.044561
      0.00000      0.00000     12.45716        -0.000000      0.000000      0.000686
      2.94326      0.02074     12.49530        -0.025205     -0.043732      0.004542
      5.84810      0.02074     12.49530         0.025205     -0.043732      0.004542
      1.48959      2.53857     12.49530        -0.050476      0.000038      0.004542
      7.30177      2.53857     12.49530         0.050476      0.000038      0.004542
      2.94201      5.05424     12.49530        -0.025271      0.043695      0.004542
      5.84935      5.05424     12.49530         0.025271      0.043695      0.004542
      8.79137      5.07570     12.47846        -0.000000     -0.000000     -0.016619
      4.39568      2.53785     12.33403        -0.000000      0.000000      0.313476
      4.39568      2.53785     14.54515        -0.000000     -0.000000     -0.080979
      4.39568      2.53785     15.70941        -0.000000     -0.000000      0.034339
 -----------------------------------------------------------------------------------
    total drift:                               -0.000830      0.001683      0.154773


--------------------------------------------------------------------------------------------------------



  FREE ENERGIE OF THE ION-ELECTRON SYSTEM (eV)
  ---------------------------------------------------
  free  energy   TOTEN  =      -114.03119064 eV

  energy  without entropy=     -114.03119064  energy(sigma->0) =     -114.03119064
 


--------------------------------------------------------------------------------------------------------


    POTLOK:  cpu time    0.0437: real time    0.0437


--------------------------------------------------------------------------------------------------------


 stress matrix after NEB project (eV)
     -8.58647     -0.00000      0.00000
     -0.00000     -8.58647     -0.00000
      0.00000      0.00000     -0.76588
  FORCES: max atom, RMS     0.080979    0.014269
  FORCE total and by dimension    0.087959    0.080979
  Stress total and by dimension   12.167231    8.586470
     LOOP+:  cpu time   70.1243: real time   70.1351
 -----------------------------------------------------------------------------
|                                                                             |
|           W    W    AA    RRRRR   N    N  II  N    N   GGGG   !!!           |
|           W    W   A  A   R    R  NN   N  II  NN   N  G    G  !!!           |
|           W    W  A    A  R    R  N N  N  II  N N  N  G       !!!           |
|           W WW W  AAAAAA  RRRRR   N  N N  II  N  N N  G  GGG   !            |
|           WW  WW  A    A  R   R   N   NN  II  N   NN  G    G                |
|           W    W  A    A  R    R  N    N  II  N    N   GGGG   !!!           |
|                                                                             |
|     Tetrahedron method does not include variations of the Fermi             |
|     occupations, so forces and stress will be inaccurate. We suggest        |
|     using a different smearing scheme ISMEAR = 1 or 2 for metals in         |
|     relaxations.                                                            |
|                                                                             |
 -----------------------------------------------------------------------------

    4ORBIT:  cpu time    0.0000: real time    0.0000



 total charge

# of ion       s       p       d       tot
------------------------------------------
    1        0.423   0.199   9.178   9.800
    2        0.412   0.204   9.178   9.794
    3        0.412   0.204   9.178   9.794
    4        0.412   0.204   9.178   9.794
    5        0.423   0.203   9.174   9.800
    6        0.412   0.204   9.178   9.794
    7        0.412   0.204   9.178   9.794
    8        0.412   0.204   9.178   9.794
    9        0.419   0.200   9.178   9.797
   10        0.411   0.270   9.161   9.841
   11        0.407   0.267   9.168   9.843
   12        0.411   0.270   9.161   9.841
   13        0.407   0.267   9.168   9.843
   14        0.407   0.267   9.168   9.843
   15        0.403   0.268   9.164   9.835
   16        0.411   0.270   9.161   9.841
   17        0.403   0.268   9.164   9.835
   18        0.403   0.268   9.164   9.835
   19        0.403   0.266   9.163   9.832
   20        0.444   0.298   9.132   9.873
   21        0.444   0.298   9.132   9.873
   22        0.396   0.270   9.165   9.830
   23        0.444   0.298   9.132   9.873
   24        0.396   0.270   9.165   9.830
   25        0.403   0.266   9.163   9.832
   26        0.403   0.266   9.163   9.832
   27        0.396   0.270   9.165   9.830
   28        0.407   0.204   9.175   9.785
   29        0.450   0.221   9.146   9.817
   30        0.450   0.221   9.146   9.817
   31        0.450   0.221   9.146   9.817
   32        0.450   0.221   9.146   9.817
   33        0.450   0.221   9.146   9.817
   34        0.450   0.221   9.146   9.817
   35        0.405   0.204   9.176   9.785
   36        0.549   0.514   1.903   2.966
   37        0.978   1.525   0.000   2.503
   38        1.617   3.523   0.000   5.139
--------------------------------------------------
tot         17.781  14.038 322.587 354.405
 
 BZINTS: Fermi energy:    0.876131;  399.000000 electrons
         Band energy:-0.136448E+04;  BLOECHL correction:   -0.019446

 total amount of memory used by VASP MPI-rank0   124869. kBytes
=======================================================================

   base      :      30000. kBytes
   nonlr-proj:      15971. kBytes
   fftplans  :       4330. kBytes
   grid      :      18659. kBytes
   one-center:        590. kBytes
   wavefun   :      55319. kBytes
 
  
  
 General timing and accounting informations for this job:
 ========================================================
  
                  Total CPU time used (sec):       77.505
                            User time (sec):       74.428
                          System time (sec):        3.078
                         Elapsed time (sec):       77.874
  
                   Maximum memory used (kb):      383336.
                   Average memory used (kb):          N/A
  
                          Minor page faults:        73306
                          Major page faults:            0
                 Voluntary context switches:         9879
