PROCAR new format
# of k-points:   10         # of bands:  252         # of ions:   38

 k-point     1 :    0.00000000 0.00000000 0.00000000     weight = 0.01562500

band     1 # energy  -22.87209128 # occ.  2.00000000
 
ion      s      p      d    tot
    1  0.000  0.000  0.000  0.000
    2  0.000  0.000  0.000  0.000
    3  0.000  0.000  0.000  0.000
    4  0.000  0.000  0.000  0.000
    5  0.000  0.000  0.000  0.000
    6  0.000  0.000  0.000  0.000
    7  0.000  0.000  0.000  0.000
    8  0.000  0.000  0.000  0.000
    9  0.000  0.000  0.000  0.000
   10  0.000  0.000  0.000  0.000
   11  0.000  0.000  0.000  0.000
   12  0.000  0.000  0.000  0.000
   13  0.000  0.000  0.000  0.000
   14  0.000  0.000  0.000  0.000
   15  0.000  0.000  0.000  0.000
   16  0.000  0.000  0.000  0.000
   17  0.000  0.000  0.000  0.000
   18  0.000  0.000  0.000  0.000
   19  0.000  0.000  0.000  0.000
   20  0.000  0.000  0.000  0.000
   21  0.000  0.000  0.000  0.000
   22  0.000  0.000  0.000  0.000
   23  0.000  0.000  0.000  0.000
   24  0.000  0.000  0.000  0.000
   25  0.000  0.000  0.000  0.000
   26  0.000  0.000  0.000  0.000
   27  0.000  0.000  0.000  0.000
   28  0.000  0.000  0.000  0.000
   29  0.000  0.000  0.000  0.000
   30  0.000  0.000  0.000  0.000
   31  0.000  0.000  0.000  0.000
   32  0.000  0.000  0.000  0.000
   33  0.000  0.000  0.000  0.000
   34  0.000  0.000  0.000  0.000
   35  0.000  0.000  0.000  0.000
   36  0.000  0.000  0.000  0.000
   37  0.156  0.116  0.000  0.273
   38  0.641  0.094  0.000  0.736
tot    0.798  0.211  0.000  1.009
 
band     2 # energy   -8.30584099 # occ.  2.00000000
 
ion      s      p      d    tot
    1  0.000  0.000  0.000  0.000
    2  0.000  0.000  0.000  0.000
    3  0.000  0.000  0.000  0.000
    4  0.000  0.000  0.000  0.000
    5  0.000  0.000  0.000  0.000
    6  0.000  0.000  0.000  0.000
    7  0.000  0.000  0.000  0.000
    8  0.000  0.000  0.000  0.000
    9  0.000  0.000  0.000  0.000
   10  0.000  0.000  0.000  0.000
   11  0.000  0.000  0.000  0.000
   12  0.000  0.000  0.000  0.000
   13  0.000  0.000  0.000  0.000
   14  0.000  0.000  0.000  0.000
   15  0.000  0.000  0.000  0.000
   16  0.000  0.000  0.000  0.000
   17  0.000  0.000  0.000  0.000
   18  0.000  0.000  0.000  0.000
   19  0.000  0.000  0.000  0.000
   20  0.000  0.000  0.000  0.001
   21  0.000  0.000  0.000  0.001
   22  0.000  0.000  0.000  0.000
   23  0.000  0.000  0.000  0.001
   24  0.000  0.000  0.000  0.000
   25  0.000  0.000  0.000  0.000
   26  0.000  0.000  0.000  0.000
   27  0.000  0.000  0.000  0.000
   28  0.000  0.000  0.000  0.000
   29  0.000  0.000  0.000  0.001
   30  0.000  0.000  0.000  0.001
   31  0.000  0.000  0.000  0.001
   32  0.000  0.000  0.000  0.001
   33  0.000  0.000  0.000  0.001
   34  0.000  0.000  0.000  0.001
   35  0.000  0.000  0.000  0.000
   36  0.022  0.011  0.021  0.054
   37  0.256  0.000  0.000  0.257
   38  0.155  0.297  0.000  0.452
tot    0.437  0.309  0.023  0.769
 
band     3 # energy   -6.34011180 # occ.  2.00000000
 
ion      s      p      d    tot
    1  0.005  0.001  0.000  0.005
    2  0.004  0.000  0.000  0.005
    3  0.004  0.000  0.000  0.005
    4  0.004  0.000  0.000  0.005
    5  0.004  0.000  0.000  0.005
    6  0.005  0.000  0.000  0.005
    7  0.005  0.000  0.000  0.005
    8  0.004  0.000  0.000  0.005
    9  0.004  0.000  0.000  0.005
   10  0.020  0.000  0.000  0.020
   11  0.020  0.000  0.000  0.020
   12  0.020  0.000  0.000  0.020
   13  0.020  0.000  0.000  0.020
   14  0.020  0.000  0.000  0.020
   15  0.018  0.000  0.000  0.018
   16  0.020  0.000  0.000  0.020
   17  0.018  0.000  0.000  0.018
   18  0.018  0.000  0.000  0.018
   19  0.021  0.000  0.000  0.021
   20  0.028  0.000  0.001  0.029
   21  0.028  0.000  0.001  0.029
   22  0.020  0.000  0.000  0.021
   23  0.028  0.000  0.001  0.029
   24  0.020  0.000  0.000  0.021
   25  0.021  0.000  0.000  0.021
   26  0.021  0.000  0.000  0.021
   27  0.020  0.000  0.000  0.021
   28  0.006  0.000  0.000  0.006
   29  0.008  0.001  0.000  0.009
   30  0.008  0.001  0.000  0.009
   31  0.008  0.001  0.000  0.009
   32  0.008  0.001  0.000  0.009
   33  0.008  0.001  0.000  0.009
   34  0.008  0.001  0.000  0.009
   35  0.006  0.000  0.000  0.006
   36  0.031  0.000  0.001  0.033
   37  0.000  0.011  0.000  0.011
   38  0.002  0.021  0.000  0.023
tot    0.511  0.043  0.012  0.566
 
band     4 # energy   -5.67934170 # occ.  2.00000000
 
ion      s      p      d    tot
    1  0.005  0.000  0.000  0.005
    2  0.006  0.000  0.000  0.007
    3  0.006  0.000  0.000  0.007
    4  0.006  0.000  0.000  0.007
    5  0.006  0.000  0.000  0.007
    6  0.006  0.000  0.000  0.007
    7  0.006  0.000  0.000  0.007
    8  0.006  0.000  0.000  0.007
    9  0.007  0.000  0.000  0.007
   10  0.008  0.000  0.005  0.014
   11  0.011  0.000  0.002  0.013
   12  0.008  0.000  0.005  0.014
   13  0.011  0.000  0.002  0.013
   14  0.011  0.000  0.002  0.013
   15  0.013  0.000  0.002  0.015
   16  0.008  0.000  0.005  0.014
   17  0.013  0.000  0.002  0.015
   18  0.013  0.000  0.002  0.015
   19  0.000  0.001  0.002  0.002
   20  0.003  0.003  0.014  0.019
   21  0.003  0.003  0.014  0.019
   22  0.000  0.001  0.001  0.002
   23  0.003  0.003  0.014  0.019
   24  0.000  0.001  0.001  0.002
   25  0.000  0.001  0.002  0.002
   26  0.000  0.001  0.002  0.002
   27  0.000  0.001  0.001  0.002
   28  0.002  0.000  0.002  0.004
   29  0.006  0.000  0.008  0.014
   30  0.006  0.000  0.008  0.014
   31  0.006  0.000  0.008  0.014
   32  0.006  0.000  0.008  0.014
   33  0.006  0.000  0.008  0.014
   34  0.006  0.000  0.008  0.014
   35  0.001  0.000  0.002  0.003
   36  0.098  0.004  0.019  0.121
   37  0.013  0.098  0.000  0.111
   38  0.007  0.118  0.000  0.124
tot    0.315  0.239  0.149  0.703
 
band     5 # energy   -5.63100088 # occ.  2.00000000
 
ion      s      p      d    tot
    1  0.000  0.000  0.000  0.000
    2  0.000  0.000  0.000  0.000
    3  0.000  0.000  0.000  0.000
    4  0.000  0.000  0.000  0.000
    5  0.000  0.000  0.000  0.000
    6  0.000  0.000  0.000  0.000
    7  0.000  0.000  0.000  0.000
    8  0.000  0.000  0.000  0.000
    9  0.000  0.000  0.000  0.000
   10  0.000  0.000  0.000  0.000
   11  0.000  0.000  0.000  0.000
   12  0.000  0.000  0.000  0.000
   13  0.000  0.000  0.000  0.000
   14  0.000  0.000  0.000  0.000
   15  0.000  0.000  0.000  0.000
   16  0.000  0.000  0.000  0.000
   17  0.000  0.000  0.000  0.000
   18  0.000  0.000  0.000  0.000
   19  0.000  0.000  0.000  0.000
   20  0.000  0.000  0.000  0.000
   21  0.000  0.000  0.000  0.000
   22  0.000  0.000  0.000  0.000
   23  0.000  0.000  0.000  0.000
   24  0.000  0.000  0.000  0.000
   25  0.000  0.000  0.000  0.000
   26  0.000  0.000  0.000  0.000
   27  0.000  0.000  0.000  0.000
   28  0.000  0.000  0.000  0.000
   29  0.000  0.000  0.001  0.001
   30  0.000  0.000  0.000  0.000
   31  0.000  0.000  0.001  0.001
   32  0.000  0.000  0.001  0.001
   33  0.000  0.000  0.000  0.000
   34  0.000  0.000  0.001  0.001
   35  0.000  0.000  0.000  0.000
   36  0.000  0.001  0.007  0.008
   37  0.000  0.168  0.000  0.168
   38  0.000  0.495  0.000  0.495
tot    0.001  0.665  0.014  0.679
 
band     6 # energy   -5.63090926 # occ.  2.00000000
 
ion      s      p      d    tot
    1  0.000  0.000  0.000  0.000
    2  0.000  0.000  0.000  0.000
    3  0.000  0.000  0.000  0.000
    4  0.000  0.000  0.000  0.000
    5  0.000  0.000  0.000  0.000
    6  0.000  0.000  0.000  0.000
    7  0.000  0.000  0.000  0.000
    8  0.000  0.000  0.000  0.000
    9  0.000  0.000  0.000  0.000
   10  0.000  0.000  0.000  0.000
   11  0.000  0.000  0.000  0.000
   12  0.000  0.000  0.000  0.000
   13  0.000  0.000  0.000  0.000
   14  0.000  0.000  0.000  0.000
   15  0.000  0.000  0.000  0.000
   16  0.000  0.000  0.000  0.000
   17  0.000  0.000  0.000  0.000
   18  0.000  0.000  0.000  0.000
   19  0.000  0.000  0.000  0.000
   20  0.000  0.000  0.000  0.000
   21  0.000  0.000  0.000  0.000
   22  0.000  0.000  0.000  0.000
   23  0.000  0.000  0.000  0.000
   24  0.000  0.000  0.000  0.000
   25  0.000  0.000  0.000  0.000
   26  0.000  0.000  0.000  0.000
   27  0.000  0.000  0.000  0.000
   28  0.000  0.000  0.000  0.000
   29  0.000  0.000  0.001  0.001
   30  0.000  0.000  0.001  0.002
   31  0.000  0.000  0.001  0.001
   32  0.000  0.000  0.001  0.001
   33  0.000  0.000  0.001  0.002
   34  0.000  0.000  0.001  0.001
   35  0.000  0.000  0.000  0.000
   36  0.000  0.001  0.007  0.008
   37  0.000  0.168  0.000  0.168
   38  0.000  0.495  0.000  0.495
tot    0.001  0.665  0.014  0.679
 
band     7 # energy   -5.33271614 # occ.  2.00000000
 
ion      s      p      d    tot
    1  0.003  0.000  0.001  0.004
    2  0.002  0.000  0.000  0.002
    3  0.002  0.000  0.000  0.002
    4  0.002  0.000  0.000  0.002
    5  0.001  0.000  0.000  0.001
    6  0.002  0.000  0.000  0.002
    7  0.002  0.000  0.000  0.002
    8  0.002  0.000  0.000  0.002
    9  0.001  0.000  0.000  0.001
   10  0.008  0.000  0.016  0.024
   11  0.004  0.001  0.021  0.026
   12  0.008  0.000  0.016  0.024
   13  0.004  0.001  0.021  0.026
   14  0.004  0.001  0.021  0.026
   15  0.003  0.001  0.014  0.018
   16  0.008  0.000  0.016  0.024
   17  0.003  0.001  0.014  0.018
   18  0.003  0.001  0.014  0.018
   19  0.013  0.000  0.024  0.038
   20  0.007  0.000  0.056  0.063
   21  0.007  0.000  0.056  0.063
   22  0.016  0.000  0.021  0.037
   23  0.007  0.000  0.056  0.063
   24  0.016  0.000  0.021  0.037
   25  0.013  0.000  0.024  0.038
   26  0.013  0.000  0.024  0.038
   27  0.016  0.000  0.021  0.037
   28  0.002  0.000  0.002  0.004
   29  0.000  0.001  0.006  0.007
   30  0.000  0.001  0.006  0.007
   31  0.000  0.001  0.006  0.007
   32  0.000  0.001  0.006  0.007
   33  0.000  0.001  0.006  0.007
   34  0.000  0.001  0.006  0.007
   35  0.002  0.001  0.002  0.004
   36  0.015  0.003  0.004  0.022
   37  0.005  0.025  0.000  0.031
   38  0.001  0.026  0.000  0.026
tot    0.195  0.066  0.502  0.763
 
band     8 # energy   -5.13343192 # occ.  2.00000000
 
ion      s      p      d    tot
    1  0.016  0.000  0.010  0.027
    2  0.009  0.000  0.013  0.022
    3  0.009  0.000  0.013  0.022
    4  0.009  0.000  0.013  0.022
    5  0.005  0.000  0.011  0.016
    6  0.009  0.000  0.013  0.022
    7  0.009  0.000  0.013  0.022
    8  0.009  0.000  0.013  0.022
    9  0.007  0.000  0.011  0.018
   10  0.001  0.000  0.022  0.024
   11  0.000  0.000  0.003  0.004
   12  0.001  0.000  0.022  0.024
   13  0.000  0.000  0.003  0.004
   14  0.000  0.000  0.003  0.004
   15  0.001  0.001  0.003  0.004
   16  0.001  0.000  0.022  0.024
   17  0.001  0.001  0.003  0.004
   18  0.001  0.001  0.003  0.004
   19  0.000  0.001  0.018  0.018
   20  0.001  0.000  0.062  0.063
   21  0.001  0.000  0.062  0.063
   22  0.006  0.000  0.004  0.009
   23  0.001  0.000  0.062  0.063
   24  0.006  0.000  0.004  0.009
   25  0.000  0.001  0.018  0.018
   26  0.000  0.001  0.018  0.018
   27  0.006  0.000  0.004  0.009
   28  0.009  0.000  0.005  0.013
   29  0.009  0.000  0.010  0.020
   30  0.009  0.000  0.010  0.020
   31  0.009  0.000  0.010  0.020
   32  0.009  0.000  0.010  0.020
   33  0.009  0.000  0.010  0.020
   34  0.009  0.000  0.010  0.020
   35  0.016  0.000  0.005  0.022
   36  0.000  0.000  0.029  0.029
   37  0.003  0.012  0.000  0.015
   38  0.000  0.010  0.000  0.010
tot    0.190  0.032  0.545  0.766
 
band     9 # energy   -5.03736433 # occ.  2.00000000
 
ion      s      p      d    tot
    1  0.000  0.000  0.007  0.007
    2  0.000  0.000  0.002  0.003
    3  0.000  0.000  0.002  0.002
    4  0.000  0.000  0.002  0.003
    5  0.000  0.000  0.003  0.003
    6  0.001  0.000  0.002  0.003
    7  0.000  0.000  0.002  0.002
    8  0.001  0.000  0.002  0.003
    9  0.000  0.000  0.002  0.002
   10  0.005  0.001  0.020  0.026
   11  0.000  0.000  0.026  0.027
   12  0.001  0.001  0.021  0.023
   13  0.000  0.000  0.028  0.029
   14  0.000  0.000  0.021  0.022
   15  0.002  0.000  0.010  0.013
   16  0.002  0.001  0.021  0.024
   17  0.001  0.000  0.011  0.012
   18  0.006  0.001  0.010  0.016
   19  0.009  0.001  0.036  0.046
   20  0.018  0.000  0.017  0.035
   21  0.002  0.000  0.159  0.161
   22  0.000  0.001  0.030  0.031
   23  0.007  0.000  0.113  0.121
   24  0.000  0.000  0.035  0.035
   25  0.023  0.000  0.038  0.061
   26  0.003  0.001  0.036  0.040
   27  0.000  0.001  0.032  0.033
   28  0.000  0.000  0.005  0.006
   29  0.000  0.000  0.002  0.003
   30  0.000  0.000  0.008  0.008
   31  0.001  0.000  0.003  0.004
   32  0.000  0.000  0.006  0.006
   33  0.000  0.000  0.007  0.007
   34  0.000  0.000  0.004  0.005
   35  0.000  0.000  0.000  0.000
   36  0.000  0.001  0.003  0.004
   37  0.000  0.000  0.000  0.000
   38  0.000  0.001  0.000  0.001
tot    0.083  0.014  0.729  0.826
 
band    10 # energy   -5.03736161 # occ.  2.00000000
 
ion      s      p      d    tot
    1  0.000  0.000  0.007  0.007
    2  0.000  0.000  0.002  0.002
    3  0.001  0.000  0.002  0.003
    4  0.000  0.000  0.002  0.003
    5  0.000  0.000  0.003  0.003
    6  0.000  0.000  0.002  0.002
    7  0.001  0.000  0.002  0.003
    8  0.000  0.000  0.002  0.002
    9  0.000  0.000  0.002  0.002
   10  0.000  0.001  0.022  0.023
   11  0.000  0.000  0.025  0.025
   12  0.005  0.001  0.020  0.026
   13  0.000  0.000  0.022  0.023
   14  0.000  0.000  0.029  0.030
   15  0.003  0.000  0.010  0.014
   16  0.003  0.001  0.021  0.025
   17  0.005  0.001  0.010  0.016
   18  0.000  0.000  0.011  0.011
   19  0.014  0.001  0.037  0.052
   20  0.000  0.000  0.176  0.176
   21  0.016  0.000  0.034  0.050
   22  0.000  0.000  0.034  0.035
   23  0.011  0.000  0.079  0.091
   24  0.000  0.001  0.030  0.031
   25  0.001  0.001  0.036  0.037
   26  0.020  0.001  0.037  0.058
   27  0.000  0.001  0.033  0.034
   28  0.000  0.000  0.005  0.006
   29  0.000  0.000  0.008  0.008
   30  0.000  0.000  0.002  0.003
   31  0.000  0.000  0.007  0.007
   32  0.001  0.000  0.004  0.005
   33  0.000  0.000  0.003  0.004
   34  0.001  0.000  0.005  0.006
   35  0.000  0.000  0.000  0.000
   36  0.000  0.001  0.003  0.004
   37  0.000  0.000  0.000  0.000
   38  0.000  0.001  0.000  0.001
tot    0.083  0.014  0.729  0.826
 
band    11 # energy   -5.03511449 # occ.  2.00000000
 
ion      s      p      d    tot
    1  0.005  0.000  0.012  0.017
    2  0.008  0.000  0.019  0.027
    3  0.008  0.000  0.019  0.027
    4  0.008  0.000  0.019  0.027
    5  0.014  0.000  0.023  0.036
    6  0.008  0.000  0.019  0.027
    7  0.008  0.000  0.019  0.027
    8  0.008  0.000  0.019  0.027
    9  0.007  0.000  0.015  0.022
   10  0.001  0.001  0.001  0.003
   11  0.002  0.001  0.034  0.036
   12  0.001  0.001  0.001  0.003
   13  0.002  0.001  0.034  0.036
   14  0.002  0.001  0.034  0.037
   15  0.000  0.000  0.024  0.024
   16  0.001  0.001  0.001  0.003
   17  0.000  0.000  0.024  0.024
   18  0.000  0.000  0.024  0.024
   19  0.003  0.000  0.017  0.020
   20  0.004  0.000  0.070  0.074
   21  0.003  0.000  0.070  0.074
   22  0.003  0.000  0.010  0.013
   23  0.003  0.000  0.070  0.074
   24  0.003  0.000  0.010  0.014
   25  0.003  0.000  0.017  0.020
   26  0.003  0.000  0.017  0.020
   27  0.003  0.000  0.010  0.013
   28  0.000  0.000  0.000  0.000
   29  0.000  0.000  0.007  0.007
   30  0.000  0.000  0.007  0.007
   31  0.000  0.000  0.007  0.007
   32  0.000  0.000  0.007  0.007
   33  0.000  0.000  0.007  0.007
   34  0.000  0.000  0.007  0.007
   35  0.001  0.000  0.000  0.002
   36  0.003  0.001  0.003  0.007
   37  0.000  0.001  0.000  0.001
   38  0.000  0.001  0.000  0.001
tot    0.121  0.011  0.675  0.808
 
band    12 # energy   -5.01646553 # occ.  2.00000000
 
ion      s      p      d    tot
    1  0.000  0.000  0.006  0.006
    2  0.000  0.000  0.002  0.003
    3  0.001  0.000  0.006  0.008
    4  0.000  0.000  0.002  0.003
    5  0.000  0.000  0.009  0.009
    6  0.002  0.001  0.006  0.008
    7  0.001  0.000  0.006  0.007
    8  0.002  0.001  0.005  0.008
    9  0.000  0.000  0.000  0.000
   10  0.012  0.001  0.011  0.024
   11  0.010  0.001  0.062  0.072
   12  0.003  0.000  0.082  0.085
   13  0.007  0.001  0.066  0.074
   14  0.033  0.001  0.019  0.053
   15  0.001  0.001  0.016  0.018
   16  0.003  0.000  0.075  0.079
   17  0.001  0.001  0.014  0.016
   18  0.004  0.000  0.036  0.040
   19  0.000  0.000  0.016  0.017
   20  0.017  0.001  0.037  0.054
   21  0.004  0.001  0.034  0.038
   22  0.002  0.000  0.024  0.027
   23  0.005  0.001  0.034  0.040
   24  0.009  0.001  0.006  0.016
   25  0.000  0.000  0.017  0.017
   26  0.000  0.000  0.016  0.017
   27  0.003  0.000  0.023  0.026
   28  0.000  0.000  0.001  0.001
   29  0.002  0.000  0.005  0.007
   30  0.001  0.000  0.004  0.005
   31  0.002  0.000  0.005  0.007
   32  0.000  0.000  0.003  0.003
   33  0.001  0.000  0.004  0.005
   34  0.000  0.000  0.003  0.003
   35  0.000  0.000  0.006  0.006
   36  0.000  0.001  0.004  0.005
   37  0.000  0.000  0.000  0.000
   38  0.000  0.000  0.000  0.000
tot    0.125  0.017  0.662  0.804
 
band    13 # energy   -5.01646277 # occ.  2.00000000
 
ion      s      p      d    tot
    1  0.000  0.000  0.006  0.006
    2  0.001  0.001  0.007  0.009
    3  0.001  0.000  0.003  0.004
    4  0.002  0.001  0.007  0.009
    5  0.000  0.000  0.009  0.009
    6  0.000  0.000  0.004  0.004
    7  0.001  0.000  0.003  0.005
    8  0.000  0.000  0.004  0.004
    9  0.000  0.000  0.000  0.000
   10  0.000  0.000  0.101  0.101
   11  0.024  0.001  0.036  0.061
   12  0.010  0.001  0.030  0.041
   13  0.026  0.001  0.032  0.059
   14  0.000  0.001  0.079  0.080
   15  0.003  0.000  0.028  0.031
   16  0.009  0.001  0.037  0.046
   17  0.003  0.000  0.030  0.033
   18  0.000  0.002  0.008  0.009
   19  0.000  0.000  0.016  0.017
   20  0.000  0.001  0.033  0.034
   21  0.013  0.001  0.036  0.050
   22  0.007  0.001  0.011  0.019
   23  0.012  0.001  0.036  0.048
   24  0.000  0.000  0.029  0.029
   25  0.000  0.001  0.016  0.017
   26  0.000  0.000  0.016  0.017
   27  0.007  0.001  0.013  0.020
   28  0.000  0.000  0.001  0.001
   29  0.000  0.000  0.003  0.003
   30  0.001  0.000  0.004  0.005
   31  0.000  0.000  0.003  0.003
   32  0.002  0.000  0.005  0.007
   33  0.001  0.000  0.004  0.005
   34  0.002  0.000  0.005  0.007
   35  0.000  0.000  0.006  0.006
   36  0.000  0.001  0.004  0.005
   37  0.000  0.000  0.000  0.000
   38  0.000  0.000  0.000  0.000
tot    0.125  0.017  0.662  0.804
 
band    14 # energy   -4.99773089 # occ.  2.00000000
 
ion      s      p      d    tot
    1  0.000  0.000  0.001  0.001
    2  0.001  0.000  0.007  0.008
    3  0.001  0.000  0.007  0.008
    4  0.001  0.000  0.007  0.008
    5  0.006  0.001  0.000  0.008
    6  0.001  0.000  0.007  0.008
    7  0.001  0.000  0.007  0.008
    8  0.001  0.000  0.007  0.008
    9  0.000  0.000  0.010  0.011
   10  0.008  0.001  0.011  0.020
   11  0.013  0.001  0.034  0.048
   12  0.008  0.001  0.011  0.020
   13  0.013  0.001  0.034  0.048
   14  0.013  0.001  0.034  0.048
   15  0.003  0.000  0.053  0.056
   16  0.008  0.001  0.011  0.020
   17  0.003  0.000  0.053  0.056
   18  0.003  0.000  0.053  0.056
   19  0.011  0.001  0.026  0.038
   20  0.006  0.001  0.021  0.028
   21  0.006  0.001  0.021  0.028
   22  0.000  0.000  0.032  0.033
   23  0.006  0.001  0.021  0.028
   24  0.000  0.000  0.032  0.033
   25  0.011  0.001  0.026  0.038
   26  0.011  0.001  0.026  0.038
   27  0.000  0.000  0.032  0.033
   28  0.003  0.001  0.003  0.007
   29  0.000  0.000  0.008  0.008
   30  0.000  0.000  0.008  0.008
   31  0.000  0.000  0.008  0.008
   32  0.000  0.000  0.008  0.008
   33  0.000  0.000  0.008  0.008
   34  0.000  0.000  0.008  0.008
   35  0.002  0.000  0.000  0.002
   36  0.001  0.000  0.001  0.002
   37  0.000  0.000  0.000  0.000
   38  0.000  0.000  0.000  0.000
tot    0.138  0.019  0.637  0.793
 
band    15 # energy   -4.98635961 # occ.  2.00000000
 
ion      s      p      d    tot
    1  0.000  0.001  0.025  0.026
    2  0.001  0.000  0.007  0.008
    3  0.001  0.000  0.007  0.008
    4  0.001  0.000  0.007  0.008
    5  0.000  0.000  0.000  0.000
    6  0.001  0.000  0.007  0.008
    7  0.001  0.000  0.007  0.008
    8  0.001  0.000  0.007  0.008
    9  0.008  0.001  0.000  0.010
   10  0.006  0.000  0.087  0.092
   11  0.001  0.001  0.045  0.047
   12  0.006  0.000  0.087  0.093
   13  0.001  0.001  0.045  0.047
   14  0.001  0.001  0.045  0.047
   15  0.010  0.001  0.007  0.018
   16  0.006  0.000  0.087  0.093
   17  0.010  0.001  0.007  0.018
   18  0.010  0.001  0.007  0.018
   19  0.000  0.000  0.023  0.023
   20  0.003  0.000  0.013  0.016
   21  0.003  0.000  0.013  0.016
   22  0.000  0.000  0.015  0.016
   23  0.003  0.000  0.013  0.016
   24  0.000  0.000  0.015  0.016
   25  0.000  0.000  0.023  0.023
   26  0.000  0.000  0.023  0.023
   27  0.000  0.000  0.015  0.016
   28  0.007  0.000  0.007  0.014
   29  0.001  0.000  0.012  0.013
   30  0.001  0.000  0.012  0.013
   31  0.001  0.000  0.012  0.013
   32  0.001  0.000  0.012  0.013
   33  0.001  0.000  0.012  0.013
   34  0.001  0.000  0.012  0.013
   35  0.001  0.000  0.003  0.004
   36  0.000  0.002  0.001  0.003
   37  0.001  0.003  0.000  0.004
   38  0.000  0.003  0.000  0.003
tot    0.091  0.018  0.717  0.826
 
band    16 # energy   -4.96692819 # occ.  2.00000000
 
ion      s      p      d    tot
    1  0.000  0.001  0.008  0.009
    2  0.004  0.001  0.007  0.012
    3  0.004  0.001  0.004  0.009
    4  0.003  0.001  0.008  0.012
    5  0.000  0.000  0.009  0.009
    6  0.000  0.000  0.008  0.008
    7  0.003  0.001  0.004  0.008
    8  0.000  0.000  0.007  0.007
    9  0.000  0.000  0.010  0.010
   10  0.018  0.000  0.019  0.037
   11  0.000  0.000  0.023  0.023
   12  0.006  0.000  0.033  0.039
   13  0.000  0.000  0.024  0.024
   14  0.000  0.000  0.030  0.030
   15  0.003  0.000  0.067  0.070
   16  0.003  0.000  0.036  0.039
   17  0.005  0.000  0.056  0.062
   18  0.016  0.000  0.007  0.023
   19  0.001  0.000  0.047  0.047
   20  0.003  0.000  0.032  0.036
   21  0.001  0.000  0.023  0.024
   22  0.005  0.000  0.036  0.041
   23  0.001  0.000  0.021  0.022
   24  0.015  0.000  0.010  0.025
   25  0.005  0.000  0.016  0.021
   26  0.002  0.000  0.041  0.043
   27  0.003  0.000  0.042  0.044
   28  0.000  0.000  0.013  0.013
   29  0.001  0.000  0.008  0.009
   30  0.001  0.000  0.006  0.007
   31  0.002  0.001  0.008  0.010
   32  0.005  0.001  0.006  0.011
   33  0.001  0.000  0.005  0.007
   34  0.005  0.001  0.005  0.011
   35  0.000  0.000  0.006  0.006
   36  0.000  0.000  0.002  0.003
   37  0.000  0.000  0.000  0.000
   38  0.000  0.000  0.000  0.000
tot    0.114  0.013  0.685  0.812
 
band    17 # energy   -4.96692317 # occ.  2.00000000
 
ion      s      p      d    tot
    1  0.000  0.001  0.008  0.009
    2  0.001  0.000  0.006  0.007
    3  0.001  0.000  0.009  0.010
    4  0.002  0.000  0.005  0.007
    5  0.000  0.000  0.009  0.009
    6  0.005  0.001  0.005  0.011
    7  0.001  0.001  0.009  0.011
    8  0.004  0.001  0.006  0.011
    9  0.000  0.000  0.010  0.010
   10  0.000  0.001  0.039  0.040
   11  0.000  0.000  0.028  0.028
   12  0.012  0.000  0.025  0.038
   13  0.000  0.000  0.027  0.027
   14  0.000  0.000  0.021  0.021
   15  0.013  0.000  0.020  0.033
   16  0.015  0.000  0.022  0.037
   17  0.011  0.000  0.031  0.042
   18  0.000  0.000  0.080  0.080
   19  0.004  0.000  0.023  0.027
   20  0.000  0.000  0.018  0.019
   21  0.002  0.000  0.028  0.030
   22  0.010  0.000  0.022  0.033
   23  0.003  0.000  0.030  0.033
   24  0.000  0.000  0.048  0.049
   25  0.000  0.000  0.053  0.053
   26  0.003  0.000  0.028  0.032
   27  0.013  0.000  0.016  0.029
   28  0.000  0.000  0.013  0.013
   29  0.004  0.001  0.005  0.009
   30  0.004  0.001  0.007  0.012
   31  0.003  0.000  0.005  0.008
   32  0.000  0.000  0.007  0.007
   33  0.003  0.001  0.007  0.011
   34  0.000  0.000  0.007  0.008
   35  0.000  0.000  0.006  0.006
   36  0.000  0.000  0.002  0.003
   37  0.000  0.000  0.000  0.000
   38  0.000  0.000  0.000  0.000
tot    0.114  0.013  0.685  0.812
 
band    18 # energy   -4.96372139 # occ.  2.00000000
 
ion      s      p      d    tot
    1  0.000  0.000  0.002  0.003
    2  0.001  0.000  0.009  0.010
    3  0.001  0.000  0.009  0.010
    4  0.001  0.000  0.009  0.010
    5  0.001  0.000  0.002  0.002
    6  0.001  0.000  0.009  0.010
    7  0.001  0.000  0.009  0.010
    8  0.001  0.000  0.009  0.010
    9  0.005  0.000  0.013  0.018
   10  0.000  0.000  0.023  0.023
   11  0.000  0.000  0.004  0.004
   12  0.000  0.000  0.023  0.023
   13  0.000  0.000  0.004  0.004
   14  0.000  0.000  0.004  0.004
   15  0.002  0.000  0.038  0.040
   16  0.000  0.000  0.023  0.023
   17  0.002  0.000  0.038  0.040
   18  0.002  0.000  0.038  0.040
   19  0.005  0.001  0.018  0.024
   20  0.002  0.000  0.032  0.035
   21  0.002  0.000  0.032  0.035
   22  0.003  0.000  0.063  0.066
   23  0.002  0.000  0.032  0.035
   24  0.002  0.000  0.064  0.066
   25  0.005  0.001  0.018  0.024
   26  0.005  0.001  0.018  0.024
   27  0.003  0.000  0.063  0.066
   28  0.008  0.001  0.000  0.009
   29  0.004  0.000  0.014  0.018
   30  0.004  0.000  0.014  0.018
   31  0.004  0.000  0.014  0.018
   32  0.004  0.000  0.014  0.018
   33  0.004  0.000  0.014  0.018
   34  0.004  0.000  0.014  0.018
   35  0.006  0.000  0.029  0.035
   36  0.000  0.000  0.004  0.004
   37  0.001  0.002  0.000  0.002
   38  0.000  0.001  0.000  0.001
tot    0.087  0.012  0.724  0.823
 
band    19 # energy   -4.95442522 # occ.  2.00000000
 
ion      s      p      d    tot
    1  0.000  0.000  0.007  0.007
    2  0.001  0.000  0.008  0.008
    3  0.000  0.000  0.007  0.007
    4  0.001  0.000  0.008  0.008
    5  0.000  0.000  0.003  0.003
    6  0.002  0.000  0.004  0.006
    7  0.000  0.000  0.006  0.007
    8  0.001  0.000  0.004  0.006
    9  0.000  0.000  0.015  0.015
   10  0.001  0.000  0.043  0.044
   11  0.000  0.000  0.049  0.050
   12  0.000  0.000  0.017  0.017
   13  0.001  0.000  0.045  0.046
   14  0.002  0.000  0.013  0.015
   15  0.001  0.000  0.063  0.064
   16  0.000  0.000  0.013  0.013
   17  0.002  0.000  0.058  0.060
   18  0.006  0.000  0.024  0.030
   19  0.001  0.000  0.071  0.072
   20  0.000  0.000  0.050  0.050
   21  0.000  0.000  0.020  0.021
   22  0.002  0.000  0.048  0.050
   23  0.000  0.000  0.016  0.017
   24  0.007  0.000  0.031  0.039
   25  0.005  0.000  0.008  0.013
   26  0.001  0.000  0.064  0.065
   27  0.001  0.000  0.050  0.052
   28  0.000  0.000  0.006  0.007
   29  0.001  0.000  0.008  0.009
   30  0.001  0.000  0.004  0.006
   31  0.001  0.000  0.008  0.009
   32  0.000  0.000  0.008  0.008
   33  0.001  0.000  0.004  0.005
   34  0.000  0.000  0.008  0.008
   35  0.000  0.000  0.014  0.014
   36  0.000  0.000  0.001  0.001
   37  0.000  0.000  0.000  0.000
   38  0.000  0.000  0.000  0.000
tot    0.040  0.006  0.806  0.852
 
band    20 # energy   -4.95441068 # occ.  2.00000000
 
ion      s      p      d    tot
    1  0.000  0.000  0.007  0.007
    2  0.001  0.000  0.005  0.006
    3  0.001  0.000  0.006  0.007
    4  0.001  0.000  0.005  0.006
    5  0.000  0.000  0.003  0.003
    6  0.000  0.000  0.008  0.008
    7  0.001  0.000  0.006  0.007
    8  0.000  0.000  0.008  0.008
    9  0.000  0.000  0.015  0.015
   10  0.000  0.000  0.005  0.006
   11  0.002  0.000  0.022  0.024
   12  0.001  0.000  0.032  0.033
   13  0.001  0.000  0.026  0.028
   14  0.000  0.000  0.059  0.059
   15  0.005  0.000  0.034  0.039
   16  0.001  0.000  0.035  0.036
   17  0.004  0.000  0.038  0.043
   18  0.000  0.000  0.072  0.072
   19  0.004  0.000  0.024  0.028
   20  0.000  0.000  0.008  0.008
   21  0.000  0.000  0.037  0.038
   22  0.005  0.000  0.038  0.043
   23  0.000  0.000  0.041  0.042
   24  0.000  0.000  0.055  0.055
   25  0.000  0.000  0.087  0.087
   26  0.003  0.000  0.032  0.035
   27  0.006  0.000  0.036  0.042
   28  0.000  0.000  0.006  0.007
   29  0.000  0.000  0.005  0.006
   30  0.000  0.000  0.009  0.009
   31  0.001  0.000  0.005  0.006
   32  0.001  0.000  0.005  0.007
   33  0.000  0.000  0.009  0.010
   34  0.001  0.000  0.006  0.007
   35  0.000  0.000  0.014  0.014
   36  0.000  0.000  0.001  0.001
   37  0.000  0.000  0.000  0.000
   38  0.000  0.000  0.000  0.000
tot    0.040  0.006  0.806  0.852
 
band    21 # energy   -4.90208291 # occ.  2.00000000
 
ion      s      p      d    tot
    1  0.007  0.001  0.000  0.008
    2  0.000  0.000  0.007  0.007
    3  0.000  0.000  0.007  0.007
    4  0.000  0.000  0.007  0.007
    5  0.001  0.001  0.016  0.017
    6  0.000  0.000  0.007  0.007
    7  0.000  0.000  0.007  0.007
    8  0.000  0.000  0.007  0.007
    9  0.000  0.000  0.001  0.001
   10  0.002  0.000  0.010  0.012
   11  0.003  0.000  0.051  0.053
   12  0.002  0.000  0.010  0.012
   13  0.003  0.000  0.051  0.053
   14  0.003  0.000  0.051  0.053
   15  0.003  0.000  0.021  0.024
   16  0.002  0.000  0.010  0.012