PROCAR new format
# of k-points:   10         # of bands:  252         # of ions:   37

 k-point     1 :    0.00000000 0.00000000 0.00000000     weight = 0.01562500

band     1 # energy  -17.97612185 # occ.  2.00000000
 
ion      s      p      d    tot
    1  0.000  0.000  0.000  0.000
    2  0.000  0.000  0.000  0.000
    3  0.000  0.000  0.000  0.000
    4  0.000  0.000  0.000  0.000
    5  0.000  0.000  0.000  0.000
    6  0.000  0.000  0.000  0.000
    7  0.000  0.000  0.000  0.000
    8  0.000  0.000  0.000  0.000
    9  0.000  0.000  0.000  0.000
   10  0.000  0.000  0.000  0.000
   11  0.000  0.000  0.000  0.000
   12  0.000  0.000  0.000  0.000
   13  0.000  0.000  0.000  0.000
   14  0.000  0.000  0.000  0.000
   15  0.000  0.000  0.000  0.000
   16  0.000  0.000  0.000  0.000
   17  0.000  0.000  0.000  0.000
   18  0.000  0.000  0.000  0.000
   19  0.000  0.000  0.000  0.000
   20  0.000  0.000  0.000  0.000
   21  0.000  0.000  0.000  0.000
   22  0.000  0.000  0.000  0.000
   23  0.000  0.000  0.000  0.000
   24  0.000  0.000  0.000  0.000
   25  0.000  0.000  0.000  0.000
   26  0.000  0.000  0.000  0.000
   27  0.000  0.000  0.000  0.000
   28  0.000  0.000  0.000  0.000
   29  0.000  0.000  0.000  0.000
   30  0.000  0.000  0.000  0.000
   31  0.000  0.000  0.000  0.000
   32  0.000  0.000  0.000  0.000
   33  0.000  0.000  0.000  0.000
   34  0.000  0.000  0.000  0.000
   35  0.000  0.000  0.000  0.000
   36  0.051  0.068  0.132  0.250
   37  0.770  0.015  0.000  0.784
tot    0.821  0.083  0.132  1.035
 
band     2 # energy   -8.11756349 # occ.  2.00000000
 
ion      s      p      d    tot
    1  0.007  0.001  0.000  0.007
    2  0.006  0.001  0.000  0.007
    3  0.006  0.001  0.000  0.007
    4  0.006  0.001  0.000  0.007
    5  0.007  0.001  0.000  0.007
    6  0.006  0.001  0.000  0.007
    7  0.006  0.001  0.000  0.007
    8  0.006  0.001  0.000  0.007
    9  0.006  0.001  0.000  0.007
   10  0.026  0.000  0.000  0.027
   11  0.027  0.000  0.000  0.027
   12  0.026  0.000  0.000  0.027
   13  0.027  0.000  0.000  0.027
   14  0.027  0.000  0.000  0.027
   15  0.026  0.000  0.000  0.027
   16  0.026  0.000  0.000  0.027
   17  0.026  0.000  0.000  0.027
   18  0.026  0.000  0.000  0.027
   19  0.024  0.000  0.000  0.024
   20  0.026  0.000  0.000  0.027
   21  0.026  0.000  0.000  0.027
   22  0.025  0.000  0.000  0.025
   23  0.026  0.000  0.000  0.027
   24  0.025  0.000  0.000  0.025
   25  0.024  0.000  0.000  0.024
   26  0.024  0.000  0.000  0.024
   27  0.025  0.000  0.000  0.025
   28  0.005  0.000  0.000  0.005
   29  0.005  0.000  0.000  0.005
   30  0.005  0.000  0.000  0.005
   31  0.005  0.000  0.000  0.005
   32  0.005  0.000  0.000  0.005
   33  0.005  0.000  0.000  0.005
   34  0.005  0.000  0.000  0.005
   35  0.005  0.000  0.000  0.005
   36  0.005  0.001  0.000  0.007
   37  0.000  0.000  0.000  0.001
tot    0.567  0.013  0.003  0.583
 
band     3 # energy   -6.92566006 # occ.  2.00000000
 
ion      s      p      d    tot
    1  0.017  0.000  0.001  0.019
    2  0.017  0.000  0.001  0.019
    3  0.017  0.000  0.001  0.019
    4  0.017  0.000  0.001  0.019
    5  0.017  0.000  0.001  0.018
    6  0.017  0.000  0.001  0.019
    7  0.017  0.000  0.001  0.019
    8  0.017  0.000  0.001  0.019
    9  0.017  0.000  0.001  0.019
   10  0.011  0.002  0.003  0.015
   11  0.010  0.002  0.003  0.014
   12  0.011  0.002  0.003  0.015
   13  0.010  0.002  0.003  0.014
   14  0.010  0.002  0.003  0.014
   15  0.010  0.002  0.003  0.014
   16  0.011  0.002  0.003  0.015
   17  0.010  0.002  0.003  0.014
   18  0.010  0.002  0.003  0.014
   19  0.014  0.001  0.004  0.019
   20  0.015  0.001  0.004  0.020
   21  0.015  0.001  0.004  0.020
   22  0.015  0.001  0.004  0.020
   23  0.015  0.001  0.004  0.020
   24  0.015  0.001  0.004  0.020
   25  0.014  0.001  0.004  0.019
   26  0.014  0.001  0.004  0.019
   27  0.015  0.001  0.004  0.020
   28  0.014  0.001  0.000  0.015
   29  0.013  0.001  0.000  0.014
   30  0.013  0.001  0.000  0.014
   31  0.013  0.001  0.000  0.014
   32  0.013  0.001  0.000  0.014
   33  0.013  0.001  0.000  0.014
   34  0.013  0.001  0.000  0.014
   35  0.014  0.001  0.000  0.015
   36  0.011  0.001  0.000  0.013
   37  0.001  0.000  0.000  0.001
tot    0.496  0.033  0.071  0.601
 
band     4 # energy   -6.03757252 # occ.  2.00000000
 
ion      s      p      d    tot
    1  0.001  0.001  0.004  0.006
    2  0.001  0.000  0.004  0.005
    3  0.001  0.000  0.004  0.006
    4  0.001  0.000  0.004  0.005
    5  0.000  0.000  0.000  0.001
    6  0.001  0.000  0.004  0.005
    7  0.001  0.000  0.004  0.006
    8  0.001  0.000  0.004  0.005
    9  0.015  0.001  0.000  0.016
   10  0.008  0.000  0.017  0.026
   11  0.005  0.002  0.008  0.015
   12  0.008  0.000  0.017  0.026
   13  0.005  0.002  0.008  0.015
   14  0.005  0.002  0.008  0.015
   15  0.015  0.001  0.005  0.022
   16  0.008  0.000  0.017  0.026
   17  0.015  0.001  0.005  0.022
   18  0.015  0.001  0.005  0.022
   19  0.000  0.001  0.021  0.023
   20  0.029  0.001  0.026  0.057
   21  0.029  0.001  0.026  0.057
   22  0.011  0.002  0.006  0.019
   23  0.029  0.001  0.026  0.057
   24  0.011  0.002  0.006  0.019
   25  0.000  0.001  0.021  0.023
   26  0.000  0.001  0.021  0.023
   27  0.011  0.002  0.006  0.019
   28  0.007  0.000  0.001  0.009
   29  0.006  0.000  0.007  0.013
   30  0.006  0.000  0.007  0.013
   31  0.006  0.000  0.007  0.013
   32  0.006  0.000  0.007  0.013
   33  0.006  0.000  0.007  0.013
   34  0.006  0.000  0.007  0.013
   35  0.020  0.001  0.002  0.023
   36  0.004  0.003  0.044  0.051
   37  0.002  0.019  0.000  0.021
tot    0.299  0.053  0.365  0.718
 
band     5 # energy   -5.98317329 # occ.  2.00000000
 
ion      s      p      d    tot
    1  0.000  0.000  0.008  0.008
    2  0.004  0.001  0.003  0.008
    3  0.006  0.001  0.003  0.010
    4  0.004  0.001  0.003  0.008
    5  0.000  0.001  0.006  0.008
    6  0.000  0.000  0.003  0.003
    7  0.006  0.001  0.003  0.010
    8  0.000  0.000  0.003  0.003
    9  0.000  0.000  0.001  0.001
   10  0.000  0.000  0.035  0.035
   11  0.038  0.002  0.015  0.054
   12  0.027  0.002  0.012  0.040
   13  0.038  0.001  0.014  0.054
   14  0.000  0.003  0.024  0.028
   15  0.001  0.001  0.010  0.012
   16  0.026  0.002  0.012  0.040
   17  0.001  0.001  0.010  0.012
   18  0.000  0.003  0.004  0.008
   19  0.008  0.001  0.011  0.020
   20  0.000  0.002  0.035  0.037
   21  0.048  0.001  0.016  0.065
   22  0.013  0.001  0.011  0.025
   23  0.047  0.002  0.016  0.065
   24  0.000  0.000  0.028  0.029
   25  0.000  0.004  0.003  0.007
   26  0.008  0.001  0.011  0.020
   27  0.013  0.001  0.011  0.025
   28  0.000  0.000  0.001  0.001
   29  0.000  0.000  0.002  0.003
   30  0.004  0.001  0.003  0.009
   31  0.000  0.000  0.002  0.003
   32  0.005  0.001  0.004  0.009
   33  0.004  0.001  0.003  0.008
   34  0.005  0.001  0.004  0.009
   35  0.000  0.000  0.004  0.004
   36  0.000  0.002  0.013  0.015
   37  0.000  0.001  0.000  0.001
tot    0.305  0.044  0.349  0.698
 
band     6 # energy   -5.98315309 # occ.  2.00000000
 
ion      s      p      d    tot
    1  0.000  0.000  0.008  0.008
    2  0.003  0.001  0.003  0.006
    3  0.001  0.000  0.003  0.004
    4  0.003  0.001  0.003  0.006
    5  0.000  0.001  0.006  0.008
    6  0.006  0.001  0.003  0.011
    7  0.001  0.000  0.003  0.004
    8  0.006  0.001  0.003  0.011
    9  0.000  0.000  0.001  0.001
   10  0.035  0.002  0.005  0.042
   11  0.013  0.003  0.021  0.037
   12  0.009  0.001  0.027  0.037
   13  0.012  0.003  0.021  0.036
   14  0.050  0.001  0.011  0.062
   15  0.000  0.003  0.006  0.009
   16  0.009  0.001  0.027  0.037
   17  0.000  0.003  0.006  0.009
   18  0.001  0.000  0.012  0.014
   19  0.003  0.003  0.006  0.011
   20  0.063  0.001  0.010  0.074
   21  0.015  0.002  0.029  0.046
   22  0.004  0.001  0.023  0.027
   23  0.016  0.002  0.029  0.047
   24  0.017  0.002  0.005  0.024
   25  0.010  0.000  0.014  0.024
   26  0.002  0.003  0.006  0.011
   27  0.004  0.001  0.022  0.027
   28  0.000  0.000  0.001  0.001
   29  0.006  0.001  0.004  0.011
   30  0.002  0.001  0.003  0.005
   31  0.006  0.001  0.004  0.011
   32  0.001  0.000  0.003  0.004
   33  0.002  0.001  0.003  0.005
   34  0.001  0.000  0.003  0.004
   35  0.000  0.000  0.004  0.004
   36  0.000  0.002  0.013  0.015
   37  0.000  0.001  0.000  0.001
tot    0.305  0.044  0.349  0.698
 
band     7 # energy   -5.97783727 # occ.  2.00000000
 
ion      s      p      d    tot
    1  0.028  0.000  0.017  0.045
    2  0.019  0.000  0.019  0.039
    3  0.019  0.000  0.019  0.039
    4  0.019  0.000  0.019  0.039
    5  0.014  0.000  0.021  0.036
    6  0.019  0.000  0.019  0.039
    7  0.019  0.000  0.019  0.039
    8  0.019  0.000  0.019  0.039
    9  0.017  0.000  0.019  0.036
   10  0.002  0.000  0.029  0.031
   11  0.012  0.001  0.023  0.036
   12  0.002  0.000  0.029  0.031
   13  0.012  0.001  0.023  0.036
   14  0.012  0.001  0.023  0.036
   15  0.012  0.001  0.023  0.036
   16  0.002  0.000  0.029  0.031
   17  0.012  0.001  0.023  0.036
   18  0.012  0.001  0.023  0.036
   19  0.003  0.000  0.003  0.006
   20  0.001  0.000  0.007  0.008
   21  0.001  0.000  0.007  0.008
   22  0.000  0.001  0.005  0.006
   23  0.001  0.000  0.007  0.008
   24  0.000  0.001  0.005  0.006
   25  0.002  0.000  0.003  0.006
   26  0.003  0.000  0.003  0.006
   27  0.000  0.001  0.005  0.006
   28  0.002  0.000  0.000  0.002
   29  0.000  0.000  0.000  0.001
   30  0.000  0.000  0.000  0.001
   31  0.000  0.000  0.000  0.001
   32  0.000  0.000  0.000  0.001
   33  0.000  0.000  0.000  0.001
   34  0.000  0.000  0.000  0.001
   35  0.000  0.000  0.000  0.000
   36  0.001  0.000  0.001  0.002
   37  0.000  0.001  0.000  0.001
tot    0.269  0.011  0.449  0.730
 
band     8 # energy   -5.94349109 # occ.  2.00000000
 
ion      s      p      d    tot
    1  0.004  0.001  0.002  0.007
    2  0.001  0.001  0.006  0.008
    3  0.001  0.001  0.006  0.008
    4  0.001  0.001  0.006  0.008
    5  0.021  0.002  0.000  0.022
    6  0.001  0.001  0.006  0.008
    7  0.001  0.001  0.006  0.008
    8  0.001  0.001  0.006  0.008
    9  0.000  0.000  0.003  0.003
   10  0.025  0.003  0.002  0.030
   11  0.020  0.001  0.022  0.043
   12  0.025  0.003  0.002  0.030
   13  0.020  0.001  0.022  0.043
   14  0.020  0.001  0.022  0.043
   15  0.001  0.001  0.025  0.027
   16  0.025  0.003  0.002  0.030
   17  0.001  0.001  0.025  0.027
   18  0.001  0.001  0.025  0.027
   19  0.023  0.002  0.008  0.033
   20  0.008  0.003  0.013  0.024
   21  0.008  0.003  0.013  0.024
   22  0.007  0.000  0.026  0.033
   23  0.008  0.003  0.013  0.024
   24  0.007  0.000  0.026  0.033
   25  0.023  0.002  0.008  0.033
   26  0.023  0.002  0.008  0.033
   27  0.007  0.000  0.026  0.033
   28  0.011  0.001  0.001  0.013
   29  0.000  0.000  0.004  0.004
   30  0.000  0.000  0.004  0.004
   31  0.000  0.000  0.004  0.004
   32  0.000  0.000  0.004  0.004
   33  0.000  0.000  0.004  0.004
   34  0.000  0.000  0.004  0.004
   35  0.003  0.001  0.002  0.006
   36  0.001  0.000  0.000  0.001
   37  0.000  0.000  0.000  0.000
tot    0.298  0.040  0.360  0.697
 
band     9 # energy   -5.93220502 # occ.  2.00000000
 
ion      s      p      d    tot
    1  0.000  0.001  0.003  0.004
    2  0.004  0.001  0.004  0.009
    3  0.007  0.001  0.004  0.012
    4  0.004  0.001  0.004  0.009
    5  0.000  0.000  0.004  0.004
    6  0.000  0.000  0.003  0.004
    7  0.007  0.001  0.004  0.012
    8  0.000  0.000  0.003  0.004
    9  0.000  0.001  0.011  0.012
   10  0.025  0.000  0.016  0.041
   11  0.002  0.001  0.019  0.023
   12  0.006  0.004  0.007  0.017
   13  0.002  0.001  0.020  0.023
   14  0.008  0.001  0.008  0.017
   15  0.016  0.001  0.032  0.050
   16  0.007  0.003  0.007  0.017
   17  0.015  0.001  0.033  0.049
   18  0.062  0.002  0.005  0.069
   19  0.011  0.001  0.028  0.040
   20  0.000  0.001  0.013  0.014
   21  0.000  0.002  0.011  0.013
   22  0.009  0.003  0.015  0.027
   23  0.000  0.002  0.011  0.013
   24  0.037  0.001  0.012  0.050
   25  0.042  0.002  0.003  0.047
   26  0.010  0.001  0.029  0.040
   27  0.010  0.003  0.015  0.028
   28  0.000  0.000  0.006  0.007
   29  0.000  0.000  0.002  0.003
   30  0.003  0.001  0.002  0.005
   31  0.000  0.000  0.002  0.002
   32  0.005  0.001  0.003  0.008
   33  0.003  0.001  0.002  0.005
   34  0.005  0.001  0.003  0.008
   35  0.000  0.001  0.004  0.005
   36  0.000  0.000  0.001  0.001
   37  0.000  0.000  0.000  0.000
tot    0.300  0.042  0.352  0.694
 
band    10 # energy   -5.93218247 # occ.  2.00000000
 
ion      s      p      d    tot
    1  0.000  0.001  0.003  0.004
    2  0.004  0.001  0.003  0.008
    3  0.001  0.000  0.004  0.005
    4  0.004  0.001  0.003  0.008
    5  0.000  0.000  0.004  0.004
    6  0.008  0.001  0.004  0.013
    7  0.001  0.000  0.003  0.005
    8  0.008  0.001  0.004  0.013
    9  0.000  0.001  0.011  0.012
   10  0.000  0.005  0.004  0.009
   11  0.006  0.001  0.012  0.019
   12  0.019  0.001  0.013  0.034
   13  0.006  0.001  0.012  0.019
   14  0.000  0.001  0.024  0.025
   15  0.045  0.001  0.015  0.062
   16  0.019  0.001  0.013  0.033
   17  0.047  0.001  0.014  0.063
   18  0.000  0.001  0.042  0.043
   19  0.031  0.002  0.012  0.044
   20  0.000  0.002  0.011  0.013
   21  0.000  0.001  0.012  0.014
   22  0.028  0.001  0.013  0.043
   23  0.000  0.001  0.012  0.014
   24  0.000  0.004  0.016  0.020
   25  0.000  0.000  0.037  0.038
   26  0.032  0.002  0.011  0.045
   27  0.027  0.001  0.013  0.042
   28  0.000  0.000  0.006  0.007
   29  0.005  0.001  0.003  0.008
   30  0.002  0.000  0.003  0.005
   31  0.005  0.001  0.003  0.008
   32  0.000  0.000  0.002  0.002
   33  0.002  0.001  0.003  0.005
   34  0.001  0.000  0.002  0.003
   35  0.000  0.001  0.004  0.005
   36  0.000  0.000  0.001  0.001
   37  0.000  0.000  0.000  0.000
tot    0.300  0.042  0.352  0.694
 
band    11 # energy   -5.87440515 # occ.  2.00000000
 
ion      s      p      d    tot
    1  0.003  0.000  0.000  0.004
    2  0.000  0.000  0.002  0.003
    3  0.000  0.000  0.002  0.003
    4  0.000  0.000  0.002  0.003
    5  0.003  0.000  0.000  0.003
    6  0.000  0.000  0.002  0.003
    7  0.000  0.000  0.002  0.003
    8  0.000  0.000  0.002  0.003
    9  0.002  0.001  0.001  0.004
   10  0.002  0.000  0.011  0.013
   11  0.003  0.001  0.004  0.008
   12  0.002  0.000  0.011  0.013
   13  0.003  0.001  0.004  0.008
   14  0.003  0.001  0.004  0.008
   15  0.009  0.001  0.006  0.016
   16  0.002  0.000  0.011  0.013
   17  0.009  0.001  0.006  0.016
   18  0.009  0.001  0.006  0.016
   19  0.004  0.001  0.017  0.022
   20  0.000  0.000  0.030  0.030
   21  0.000  0.000  0.030  0.030
   22  0.016  0.002  0.015  0.033
   23  0.000  0.000  0.030  0.030
   24  0.016  0.002  0.015  0.033
   25  0.004  0.001  0.017  0.022
   26  0.004  0.001  0.017  0.022
   27  0.016  0.002  0.015  0.033
   28  0.019  0.000  0.018  0.037
   29  0.020  0.000  0.016  0.036
   30  0.020  0.000  0.016  0.036
   31  0.020  0.000  0.016  0.036
   32  0.020  0.000  0.016  0.036
   33  0.020  0.000  0.016  0.036
   34  0.020  0.000  0.016  0.036
   35  0.014  0.000  0.017  0.032
   36  0.013  0.000  0.030  0.043
   37  0.000  0.004  0.000  0.004
tot    0.281  0.023  0.421  0.725
 
band    12 # energy   -5.50220019 # occ.  2.00000000
 
ion      s      p      d    tot
    1  0.006  0.001  0.003  0.010
    2  0.000  0.001  0.008  0.009
    3  0.000  0.001  0.008  0.009
    4  0.000  0.001  0.008  0.009
    5  0.004  0.000  0.001  0.005
    6  0.000  0.001  0.008  0.009
    7  0.000  0.001  0.008  0.009
    8  0.000  0.001  0.008  0.009
    9  0.021  0.002  0.001  0.023
   10  0.010  0.001  0.026  0.037
   11  0.000  0.000  0.043  0.043
   12  0.010  0.001  0.026  0.037
   13  0.000  0.000  0.043  0.043
   14  0.000  0.000  0.043  0.043
   15  0.009  0.002  0.009  0.020
   16  0.010  0.001  0.026  0.037
   17  0.009  0.002  0.009  0.020
   18  0.009  0.002  0.009  0.020
   19  0.000  0.000  0.025  0.026
   20  0.003  0.001  0.042  0.047
   21  0.003  0.001  0.042  0.047
   22  0.010  0.001  0.013  0.024
   23  0.003  0.001  0.042  0.047
   24  0.010  0.001  0.013  0.024
   25  0.000  0.000  0.025  0.026
   26  0.000  0.000  0.025  0.026
   27  0.010  0.001  0.013  0.024
   28  0.009  0.000  0.001  0.011
   29  0.000  0.000  0.005  0.005
   30  0.000  0.000  0.005  0.006
   31  0.000  0.000  0.005  0.005
   32  0.000  0.000  0.005  0.005
   33  0.000  0.000  0.005  0.006
   34  0.000  0.000  0.005  0.005
   35  0.004  0.001  0.005  0.010
   36  0.004  0.000  0.018  0.022
   37  0.002  0.013  0.000  0.015
tot    0.148  0.040  0.579  0.767
 
band    13 # energy   -5.49083719 # occ.  2.00000000
 
ion      s      p      d    tot
    1  0.000  0.001  0.004  0.005
    2  0.001  0.001  0.005  0.007
    3  0.010  0.001  0.005  0.016
    4  0.001  0.001  0.005  0.007
    5  0.000  0.002  0.010  0.012
    6  0.004  0.001  0.004  0.009
    7  0.010  0.001  0.005  0.016
    8  0.004  0.001  0.004  0.009
    9  0.000  0.000  0.010  0.010
   10  0.000  0.001  0.047  0.048
   11  0.017  0.001  0.021  0.039
   12  0.006  0.002  0.019  0.027
   13  0.017  0.001  0.021  0.039
   14  0.000  0.000  0.054  0.054
   15  0.002  0.000  0.020  0.023
   16  0.006  0.002  0.019  0.027
   17  0.002  0.000  0.020  0.023
   18  0.000  0.001  0.012  0.014
   19  0.004  0.000  0.018  0.022
   20  0.000  0.000  0.070  0.070
   21  0.016  0.001  0.022  0.040
   22  0.004  0.001  0.019  0.024
   23  0.016  0.001  0.022  0.040
   24  0.000  0.001  0.037  0.038
   25  0.000  0.001  0.010  0.011
   26  0.004  0.000  0.018  0.022
   27  0.004  0.001  0.019  0.024
   28  0.000  0.000  0.006  0.007
   29  0.003  0.001  0.004  0.007
   30  0.008  0.001  0.005  0.014
   31  0.003  0.001  0.004  0.007
   32  0.001  0.001  0.004  0.006
   33  0.008  0.001  0.005  0.014
   34  0.001  0.001  0.004  0.006
   35  0.000  0.000  0.002  0.003
   36  0.000  0.002  0.014  0.017
   37  0.000  0.002  0.000  0.002
tot    0.154  0.032  0.567  0.753
 
band    14 # energy   -5.49083055 # occ.  2.00000000
 
ion      s      p      d    tot
    1  0.000  0.001  0.004  0.005
    2  0.009  0.001  0.004  0.014
    3  0.000  0.000  0.005  0.005
    4  0.009  0.001  0.004  0.014
    5  0.000  0.002  0.010  0.012
    6  0.006  0.001  0.005  0.012
    7  0.000  0.000  0.005  0.005
    8  0.006  0.001  0.005  0.012
    9  0.000  0.000  0.010  0.010
   10  0.009  0.002  0.010  0.020
   11  0.006  0.000  0.043  0.049
   12  0.002  0.001  0.038  0.041
   13  0.006  0.000  0.043  0.049
   14  0.023  0.001  0.010  0.034
   15  0.001  0.001  0.015  0.017
   16  0.002  0.001  0.038  0.041
   17  0.001  0.001  0.015  0.017
   18  0.003  0.000  0.023  0.026
   19  0.001  0.001  0.013  0.014
   20  0.022  0.001  0.006  0.029
   21  0.005  0.000  0.054  0.060
   22  0.001  0.001  0.031  0.033
   23  0.005  0.000  0.054  0.060
   24  0.005  0.001  0.012  0.019
   25  0.005  0.000  0.020  0.025
   26  0.001  0.001  0.013  0.014
   27  0.001  0.001  0.031  0.033
   28  0.000  0.000  0.006  0.007
   29  0.005  0.001  0.005  0.011
   30  0.000  0.000  0.003  0.004
   31  0.005  0.001  0.005  0.011
   32  0.006  0.001  0.005  0.012
   33  0.000  0.000  0.003  0.004
   34  0.006  0.001  0.005  0.012
   35  0.000  0.000  0.002  0.003
   36  0.000  0.002  0.014  0.017
   37  0.000  0.002  0.000  0.002
tot    0.154  0.032  0.567  0.753
 
band    15 # energy   -5.46991982 # occ.  2.00000000
 
ion      s      p      d    tot
    1  0.016  0.001  0.000  0.017
    2  0.000  0.001  0.008  0.008
    3  0.000  0.001  0.008  0.008
    4  0.000  0.001  0.008  0.008
    5  0.010  0.001  0.001  0.013
    6  0.000  0.001  0.008  0.008
    7  0.000  0.001  0.008  0.008
    8  0.000  0.001  0.008  0.008
    9  0.000  0.000  0.001  0.001
   10  0.001  0.001  0.027  0.029
   11  0.009  0.001  0.006  0.017
   12  0.001  0.001  0.027  0.029
   13  0.009  0.001  0.006  0.017
   14  0.009  0.001  0.006  0.017
   15  0.003  0.000  0.038  0.042
   16  0.001  0.001  0.027  0.029
   17  0.003  0.000  0.038  0.042
   18  0.003  0.000  0.038  0.042
   19  0.016  0.001  0.021  0.038
   20  0.003  0.002  0.021  0.026
   21  0.003  0.002  0.021  0.026
   22  0.001  0.000  0.045  0.047
   23  0.003  0.002  0.021  0.026
   24  0.001  0.000  0.045  0.047
   25  0.016  0.001  0.021  0.038
   26  0.016  0.001  0.021  0.038
   27  0.001  0.000  0.045  0.047
   28  0.004  0.002  0.007  0.012
   29  0.001  0.000  0.005  0.006
   30  0.001  0.000  0.005  0.006
   31  0.001  0.000  0.005  0.006
   32  0.001  0.000  0.005  0.006
   33  0.001  0.000  0.005  0.006
   34  0.001  0.000  0.005  0.006
   35  0.001  0.000  0.000  0.001
   36  0.020  0.002  0.007  0.029
   37  0.002  0.012  0.000  0.014
tot    0.158  0.041  0.567  0.766
 
band    16 # energy   -5.44322895 # occ.  2.00000000
 
ion      s      p      d    tot
    1  0.000  0.001  0.014  0.015
    2  0.009  0.001  0.004  0.015
    3  0.001  0.000  0.005  0.006
    4  0.009  0.001  0.004  0.015
    5  0.000  0.000  0.006  0.006
    6  0.005  0.001  0.005  0.011
    7  0.001  0.000  0.005  0.006
    8  0.005  0.001  0.005  0.011
    9  0.000  0.001  0.006  0.007
   10  0.000  0.001  0.033  0.034
   11  0.000  0.001  0.020  0.021
   12  0.009  0.000  0.022  0.031
   13  0.000  0.001  0.020  0.021
   14  0.000  0.001  0.016  0.018
   15  0.011  0.002  0.020  0.033
   16  0.009  0.000  0.022  0.031
   17  0.011  0.002  0.020  0.033
   18  0.000  0.000  0.062  0.062
   19  0.015  0.001  0.020  0.036
   20  0.000  0.002  0.022  0.023
   21  0.000  0.001  0.022  0.023
   22  0.016  0.001  0.021  0.037
   23  0.000  0.001  0.022  0.023
   24  0.000  0.001  0.030  0.030
   25  0.000  0.000  0.066  0.066
   26  0.015  0.001  0.020  0.036
   27  0.016  0.001  0.021  0.037
   28  0.000  0.001  0.005  0.006
   29  0.005  0.001  0.004  0.010
   30  0.000  0.000  0.004  0.005
   31  0.005  0.001  0.004  0.010
   32  0.005  0.001  0.003  0.009
   33  0.000  0.000  0.004  0.005
   34  0.005  0.001  0.003  0.009
   35  0.000  0.001  0.008  0.009
   36  0.000  0.000  0.002  0.002
   37  0.000  0.000  0.000  0.000
tot    0.151  0.029  0.570  0.750
 
band    17 # energy   -5.44322243 # occ.  2.00000000
 
ion      s      p      d    tot
    1  0.000  0.001  0.014  0.015
    2  0.001  0.001  0.005  0.006
    3  0.009  0.001  0.005  0.015
    4  0.001  0.001  0.005  0.006
    5  0.000  0.000  0.006  0.006
    6  0.005  0.001  0.004  0.010
    7  0.009  0.001  0.005  0.015
    8  0.005  0.001  0.004  0.010
    9  0.000  0.001  0.006  0.007
   10  0.012  0.000  0.018  0.030
   11  0.000  0.001  0.018  0.019
   12  0.003  0.001  0.029  0.033
   13  0.000  0.001  0.018  0.019
   14  0.000  0.001  0.021  0.022
   15  0.004  0.001  0.048  0.052
   16  0.003  0.001  0.029  0.033
   17  0.004  0.001  0.048  0.052
   18  0.014  0.002  0.006  0.023
   19  0.005  0.001  0.051  0.056
   20  0.000  0.000  0.022  0.023
   21  0.000  0.001  0.022  0.023
   22  0.005  0.001  0.027  0.033
   23  0.000  0.001  0.022  0.023
   24  0.021  0.001  0.018  0.039
   25  0.019  0.001  0.004  0.025
   26  0.005  0.001  0.051  0.056
   27  0.005  0.001  0.027  0.033
   28  0.000  0.001  0.005  0.006
   29  0.002  0.000  0.003  0.006
   30  0.007  0.001  0.003  0.011
   31  0.002  0.000  0.003  0.006
   32  0.002  0.001  0.005  0.007
   33  0.007  0.001  0.003  0.011
   34  0.002  0.001  0.005  0.007
   35  0.000  0.001  0.008  0.009
   36  0.000  0.000  0.002  0.002
   37  0.000  0.000  0.000  0.000
tot    0.151  0.029  0.570  0.750
 
band    18 # energy   -5.17143284 # occ.  2.00000000
 
ion      s      p      d    tot
    1  0.000  0.000  0.000  0.000
    2  0.000  0.000  0.001  0.001
    3  0.000  0.000  0.001  0.001
    4  0.000  0.000  0.001  0.001
    5  0.004  0.001  0.005  0.010
    6  0.000  0.000  0.001  0.001
    7  0.000  0.000  0.001  0.001
    8  0.000  0.000  0.001  0.001
    9  0.003  0.001  0.002  0.005
   10  0.000  0.000  0.007  0.007
   11  0.000  0.001  0.048  0.049
   12  0.000  0.000  0.007  0.007
   13  0.000  0.001  0.048  0.049
   14  0.000  0.001  0.048  0.049
   15  0.000  0.000  0.019  0.019
   16  0.000  0.000  0.007  0.007
   17  0.000  0.000  0.019  0.019
   18  0.000  0.000  0.019  0.019
   19  0.000  0.000  0.010  0.010
   20  0.003  0.000  0.054  0.057
   21  0.003  0.000  0.054  0.057
   22  0.001  0.000  0.033  0.035
   23  0.003  0.000  0.054  0.057
   24  0.001  0.000  0.033  0.035
   25  0.000  0.000  0.010  0.010
   26  0.000  0.000  0.010  0.010
   27  0.001  0.000  0.033  0.035
   28  0.002  0.000  0.000  0.003
   29  0.000  0.001  0.014  0.015
   30  0.000  0.001  0.014  0.015
   31  0.000  0.001  0.014  0.015
   32  0.000  0.001  0.014  0.015
   33  0.000  0.001  0.014  0.015
   34  0.000  0.001  0.014  0.015
   35  0.020  0.001  0.003  0.024
   36  0.003  0.000  0.101  0.104
   37  0.006  0.074  0.000  0.081
tot    0.052  0.091  0.713  0.855
 
band    19 # energy   -5.10215827 # occ.  2.00000000
 
ion      s      p      d    tot
    1  0.000  0.000  0.016  0.017
    2  0.001  0.001  0.010  0.011
    3  0.004  0.000  0.014  0.018
    4  0.001  0.001  0.010  0.011
    5  0.000  0.001  0.024  0.025
    6  0.008  0.001  0.008  0.017
    7  0.004  0.000  0.014  0.018
    8  0.008  0.001  0.008  0.017
    9  0.000  0.001  0.005  0.006
   10  0.000  0.000  0.022  0.022
   11  0.000  0.000  0.055  0.056
   12  0.000  0.000  0.011  0.011
   13  0.000  0.000  0.055  0.056
   14  0.000  0.000  0.048  0.049
   15  0.000  0.000  0.028  0.028
   16  0.000  0.000  0.011  0.011
   17  0.000  0.000  0.028  0.028
   18  0.000  0.000  0.041  0.041
   19  0.000  0.000  0.008  0.009
   20  0.001  0.000  0.066  0.067
   21  0.000  0.000  0.043  0.044
   22  0.000  0.000  0.036  0.036
   23  0.000  0.000  0.044  0.044
   24  0.000  0.000  0.031  0.031
   25  0.000  0.000  0.013  0.013
   26  0.000  0.000  0.008  0.008
   27  0.000  0.000  0.036  0.036
   28  0.000  0.000  0.007  0.007
   29  0.005  0.000  0.011  0.016
   30  0.000  0.000  0.008  0.008
   31  0.005  0.000  0.011  0.016
   32  0.005  0.001  0.006  0.011
   33  0.000  0.000  0.008  0.008
   34  0.005  0.001  0.006  0.011
   35  0.000  0.000  0.014  0.014
   36  0.000  0.002  0.011  0.013
   37  0.000  0.001  0.000  0.001
tot    0.050  0.015  0.773  0.838
 
band    20 # energy   -5.10215181 # occ.  2.00000000
 
ion      s      p      d    tot
    1  0.000  0.000  0.016  0.017
    2  0.008  0.000  0.011  0.020
    3  0.004  0.001  0.008  0.013
    4  0.008  0.000  0.011  0.020
    5  0.000  0.001  0.024  0.025
    6  0.001  0.000  0.013  0.014
    7  0.005  0.001  0.008  0.013
    8  0.001  0.000  0.013  0.014
    9  0.000  0.001  0.005  0.006
   10  0.000  0.000  0.008  0.008
   11  0.000  0.000  0.051  0.051
   12  0.000  0.000  0.018  0.019
   13  0.000  0.000  0.051  0.051
   14  0.000  0.000  0.057  0.058
   15  0.000  0.000  0.037  0.037
   16  0.000  0.000  0.018  0.018
   17  0.000  0.000  0.037  0.037
   18  0.000  0.000  0.024  0.024
   19  0.000  0.000  0.011  0.012
   20  0.000  0.000  0.036  0.036
   21  0.001  0.000  0.059  0.060
   22  0.000  0.000  0.032  0.033
   23  0.001  0.000  0.058  0.059
   24  0.000  0.000  0.037  0.038
   25  0.000  0.000  0.007  0.007
   26  0.000  0.000  0.011  0.012
   27  0.000  0.000  0.032  0.033
   28  0.000  0.000  0.007  0.008
   29  0.002  0.000  0.005  0.007
   30  0.007  0.001  0.009  0.016
   31  0.002  0.000  0.005  0.007
   32  0.002  0.000  0.010  0.012
   33  0.007  0.001  0.008  0.016
   34  0.002  0.000  0.010  0.012
   35  0.000  0.000  0.014  0.014
   36  0.000  0.002  0.011  0.013
   37  0.000  0.001  0.000  0.001
tot    0.050  0.015  0.773  0.838
 
band    21 # energy   -5.07492155 # occ.  2.00000000
 
ion      s      p      d    tot
    1  0.002  0.001  0.006  0.009
    2  0.000  0.001  0.019  0.020
    3  0.000  0.001  0.019  0.020
    4  0.000  0.001  0.019  0.020
    5  0.025  0.001  0.001  0.027
    6  0.000  0.001  0.019  0.020
    7  0.000  0.001  0.019  0.020
    8  0.000  0.001  0.019  0.020
    9  0.014  0.000  0.013  0.027
   10  0.000  0.000  0.042  0.042
   11  0.000  0.001  0.030  0.030
   12  0.000  0.000  0.042  0.042
   13  0.000  0.001  0.030  0.030
   14  0.000  0.001  0.030  0.030
   15  0.000  0.000  0.036  0.036
   16  0.000  0.000  0.042  0.042
   17  0.000  0.000  0.036  0.036
   18  0.000  0.000  0.036  0.036
   19  0.001  0.000  0.026  0.028
   20  0.000  0.000  0.026  0.026
   21  0.000  0.000  0.026  0.026
   22  0.001  0.000  0.019  0.020
   23  0.000  0.000  0.026  0.026
   24  0.001  0.000  0.019  0.020
   25  0.001  0.000  0.026  0.028
   26  0.001  0.000  0.026  0.028
   27  0.001  0.000  0.019  0.020
   28  0.008  0.000  0.006  0.014
   29  0.000  0.000  0.012  0.012
   30  0.000  0.000  0.012  0.012
   31  0.000  0.000  0.012  0.012
   32  0.000  0.000  0.011  0.012
   33  0.000  0.000  0.012  0.012
   34  0.000  0.000  0.011  0.012
   35  0.000  0.000  0.004  0.004
   36  0.006  0.001  0.001  0.008