PROCAR new format
# of k-points:   10         # of bands:  252         # of ions:   39

 k-point     1 :    0.00000000 0.00000000 0.00000000     weight = 0.01562500

band     1 # energy  -24.50509826 # occ.  2.00000000
 
ion      s      p      d    tot
    1  0.000  0.000  0.000  0.000
    2  0.000  0.000  0.000  0.000
    3  0.000  0.000  0.000  0.000
    4  0.000  0.000  0.000  0.000
    5  0.000  0.000  0.000  0.000
    6  0.000  0.000  0.000  0.000
    7  0.000  0.000  0.000  0.000
    8  0.000  0.000  0.000  0.000
    9  0.000  0.000  0.000  0.000
   10  0.000  0.000  0.000  0.000
   11  0.000  0.000  0.000  0.000
   12  0.000  0.000  0.000  0.000
   13  0.000  0.000  0.000  0.000
   14  0.000  0.000  0.000  0.000
   15  0.000  0.000  0.000  0.000
   16  0.000  0.000  0.000  0.000
   17  0.000  0.000  0.000  0.000
   18  0.000  0.000  0.000  0.000
   19  0.000  0.000  0.000  0.000
   20  0.000  0.000  0.000  0.000
   21  0.000  0.000  0.000  0.000
   22  0.000  0.000  0.000  0.000
   23  0.000  0.000  0.000  0.000
   24  0.000  0.000  0.000  0.000
   25  0.000  0.000  0.000  0.000
   26  0.000  0.000  0.000  0.000
   27  0.000  0.000  0.000  0.000
   28  0.000  0.000  0.000  0.000
   29  0.000  0.000  0.000  0.000
   30  0.000  0.000  0.000  0.000
   31  0.000  0.000  0.000  0.000
   32  0.000  0.000  0.000  0.000
   33  0.000  0.000  0.000  0.000
   34  0.000  0.000  0.000  0.000
   35  0.000  0.000  0.000  0.000
   36  0.000  0.000  0.000  0.000
   37  0.080  0.059  0.000  0.139
   38  0.723  0.008  0.000  0.732
   39  0.057  0.012  0.000  0.070
tot    0.861  0.080  0.000  0.941
 
band     2 # energy  -15.14665781 # occ.  2.00000000
 
ion      s      p      d    tot
    1  0.000  0.000  0.000  0.000
    2  0.000  0.000  0.000  0.000
    3  0.000  0.000  0.000  0.000
    4  0.000  0.000  0.000  0.000
    5  0.000  0.000  0.000  0.000
    6  0.000  0.000  0.000  0.000
    7  0.000  0.000  0.000  0.000
    8  0.000  0.000  0.000  0.000
    9  0.000  0.000  0.000  0.000
   10  0.000  0.000  0.000  0.000
   11  0.000  0.000  0.000  0.000
   12  0.000  0.000  0.000  0.000
   13  0.000  0.000  0.000  0.000
   14  0.000  0.000  0.000  0.000
   15  0.000  0.000  0.000  0.000
   16  0.000  0.000  0.000  0.000
   17  0.000  0.000  0.000  0.000
   18  0.000  0.000  0.000  0.000
   19  0.000  0.000  0.000  0.000
   20  0.000  0.000  0.000  0.000
   21  0.000  0.000  0.000  0.000
   22  0.000  0.000  0.000  0.000
   23  0.000  0.000  0.000  0.000
   24  0.000  0.000  0.000  0.000
   25  0.000  0.000  0.000  0.000
   26  0.000  0.000  0.000  0.000
   27  0.000  0.000  0.000  0.000
   28  0.000  0.000  0.000  0.000
   29  0.000  0.000  0.000  0.000
   30  0.000  0.000  0.000  0.000
   31  0.000  0.000  0.000  0.000
   32  0.000  0.000  0.000  0.000
   33  0.000  0.000  0.000  0.000
   34  0.000  0.000  0.000  0.000
   35  0.000  0.000  0.000  0.000
   36  0.002  0.003  0.004  0.009
   37  0.160  0.048  0.000  0.208
   38  0.020  0.520  0.000  0.540
   39  0.198  0.031  0.000  0.230
tot    0.381  0.602  0.004  0.987
 
band     3 # energy   -8.33469266 # occ.  2.00000000
 
ion      s      p      d    tot
    1  0.000  0.000  0.000  0.000
    2  0.000  0.000  0.000  0.000
    3  0.000  0.000  0.000  0.000
    4  0.000  0.000  0.000  0.000
    5  0.000  0.000  0.000  0.000
    6  0.000  0.000  0.000  0.000
    7  0.000  0.000  0.000  0.000
    8  0.000  0.000  0.000  0.000
    9  0.000  0.000  0.000  0.000
   10  0.000  0.000  0.000  0.000
   11  0.000  0.000  0.000  0.000
   12  0.000  0.000  0.000  0.000
   13  0.000  0.000  0.000  0.000
   14  0.000  0.000  0.000  0.000
   15  0.000  0.000  0.000  0.000
   16  0.000  0.000  0.000  0.000
   17  0.000  0.000  0.000  0.000
   18  0.000  0.000  0.000  0.000
   19  0.000  0.000  0.000  0.000
   20  0.002  0.001  0.003  0.005
   21  0.002  0.001  0.003  0.005
   22  0.000  0.000  0.000  0.000
   23  0.002  0.001  0.003  0.005
   24  0.000  0.000  0.000  0.000
   25  0.000  0.000  0.000  0.000
   26  0.000  0.000  0.000  0.000
   27  0.000  0.000  0.000  0.000
   28  0.000  0.000  0.000  0.000
   29  0.001  0.000  0.001  0.002
   30  0.001  0.000  0.001  0.002
   31  0.001  0.000  0.001  0.002
   32  0.001  0.000  0.001  0.002
   33  0.001  0.000  0.001  0.002
   34  0.001  0.000  0.001  0.002
   35  0.000  0.000  0.000  0.000
   36  0.093  0.069  0.308  0.470
   37  0.192  0.187  0.000  0.379
   38  0.012  0.051  0.000  0.063
   39  0.014  0.001  0.000  0.015
tot    0.322  0.311  0.319  0.952
 
band     4 # energy   -7.30778333 # occ.  2.00000000
 
ion      s      p      d    tot
    1  0.000  0.000  0.000  0.000
    2  0.000  0.000  0.000  0.000
    3  0.000  0.000  0.000  0.000
    4  0.000  0.000  0.000  0.000
    5  0.000  0.000  0.000  0.000
    6  0.000  0.000  0.000  0.000
    7  0.000  0.000  0.000  0.000
    8  0.000  0.000  0.000  0.000
    9  0.000  0.000  0.000  0.000
   10  0.000  0.000  0.000  0.000
   11  0.000  0.000  0.000  0.000
   12  0.000  0.000  0.000  0.000
   13  0.000  0.000  0.000  0.000
   14  0.000  0.000  0.000  0.000
   15  0.000  0.000  0.000  0.000
   16  0.000  0.000  0.000  0.000
   17  0.000  0.000  0.000  0.000
   18  0.000  0.000  0.000  0.000
   19  0.000  0.000  0.000  0.000
   20  0.000  0.000  0.000  0.000
   21  0.000  0.000  0.000  0.000
   22  0.000  0.000  0.000  0.000
   23  0.000  0.000  0.000  0.000
   24  0.000  0.000  0.000  0.000
   25  0.000  0.000  0.000  0.000
   26  0.000  0.000  0.000  0.000
   27  0.000  0.000  0.000  0.000
   28  0.000  0.000  0.000  0.000
   29  0.000  0.000  0.001  0.001
   30  0.000  0.000  0.000  0.000
   31  0.000  0.000  0.001  0.001
   32  0.000  0.000  0.001  0.001
   33  0.000  0.000  0.000  0.000
   34  0.000  0.000  0.001  0.001
   35  0.000  0.000  0.000  0.000
   36  0.000  0.002  0.025  0.027
   37  0.000  0.120  0.000  0.120
   38  0.000  0.526  0.000  0.526
   39  0.000  0.007  0.000  0.007
tot    0.001  0.656  0.028  0.685
 
band     5 # energy   -7.30758213 # occ.  2.00000000
 
ion      s      p      d    tot
    1  0.000  0.000  0.000  0.000
    2  0.000  0.000  0.000  0.000
    3  0.000  0.000  0.000  0.000
    4  0.000  0.000  0.000  0.000
    5  0.000  0.000  0.000  0.000
    6  0.000  0.000  0.000  0.000
    7  0.000  0.000  0.000  0.000
    8  0.000  0.000  0.000  0.000
    9  0.000  0.000  0.000  0.000
   10  0.000  0.000  0.000  0.000
   11  0.000  0.000  0.000  0.000
   12  0.000  0.000  0.000  0.000
   13  0.000  0.000  0.000  0.000
   14  0.000  0.000  0.000  0.000
   15  0.000  0.000  0.000  0.000
   16  0.000  0.000  0.000  0.000
   17  0.000  0.000  0.000  0.000
   18  0.000  0.000  0.000  0.000
   19  0.000  0.000  0.000  0.000
   20  0.000  0.000  0.000  0.000
   21  0.000  0.000  0.000  0.000
   22  0.000  0.000  0.000  0.000
   23  0.000  0.000  0.000  0.000
   24  0.000  0.000  0.000  0.000
   25  0.000  0.000  0.000  0.000
   26  0.000  0.000  0.000  0.000
   27  0.000  0.000  0.000  0.000
   28  0.000  0.000  0.000  0.000
   29  0.000  0.000  0.000  0.000
   30  0.000  0.000  0.001  0.001
   31  0.000  0.000  0.000  0.000
   32  0.000  0.000  0.000  0.000
   33  0.000  0.000  0.001  0.001
   34  0.000  0.000  0.000  0.000
   35  0.000  0.000  0.000  0.000
   36  0.000  0.002  0.025  0.027
   37  0.000  0.120  0.000  0.120
   38  0.000  0.526  0.000  0.526
   39  0.000  0.007  0.000  0.007
tot    0.001  0.656  0.028  0.685
 
band     6 # energy   -6.50971445 # occ.  2.00000000
 
ion      s      p      d    tot
    1  0.007  0.001  0.000  0.007
    2  0.006  0.001  0.000  0.007
    3  0.006  0.001  0.000  0.007
    4  0.006  0.001  0.000  0.007
    5  0.006  0.001  0.000  0.007
    6  0.006  0.001  0.000  0.007
    7  0.006  0.001  0.000  0.007
    8  0.006  0.001  0.000  0.007
    9  0.006  0.001  0.000  0.007
   10  0.024  0.000  0.000  0.025
   11  0.024  0.000  0.000  0.025
   12  0.024  0.000  0.000  0.025
   13  0.024  0.000  0.000  0.025
   14  0.024  0.000  0.000  0.025
   15  0.024  0.000  0.000  0.025
   16  0.024  0.000  0.000  0.025
   17  0.024  0.000  0.000  0.025
   18  0.024  0.000  0.000  0.025
   19  0.022  0.000  0.000  0.023
   20  0.022  0.000  0.000  0.022
   21  0.022  0.000  0.000  0.022
   22  0.023  0.000  0.000  0.023
   23  0.022  0.000  0.000  0.022
   24  0.023  0.000  0.000  0.023
   25  0.022  0.000  0.000  0.023
   26  0.022  0.000  0.000  0.023
   27  0.023  0.000  0.000  0.023
   28  0.005  0.001  0.000  0.006
   29  0.005  0.001  0.000  0.005
   30  0.005  0.001  0.000  0.005
   31  0.005  0.001  0.000  0.005
   32  0.005  0.001  0.000  0.005
   33  0.005  0.001  0.000  0.005
   34  0.005  0.001  0.000  0.005
   35  0.005  0.001  0.000  0.006
   36  0.002  0.004  0.006  0.011
   37  0.002  0.002  0.000  0.004
   38  0.000  0.000  0.000  0.000
   39  0.000  0.000  0.000  0.000
tot    0.519  0.018  0.013  0.550
 
band     7 # energy   -5.64253106 # occ.  2.00000000
 
ion      s      p      d    tot
    1  0.009  0.000  0.000  0.009
    2  0.008  0.000  0.000  0.008
    3  0.008  0.000  0.000  0.008
    4  0.008  0.000  0.000  0.008
    5  0.007  0.000  0.000  0.008
    6  0.008  0.000  0.000  0.008
    7  0.008  0.000  0.000  0.008
    8  0.008  0.000  0.000  0.008
    9  0.007  0.000  0.000  0.008
   10  0.011  0.001  0.014  0.026
   11  0.010  0.001  0.016  0.026
   12  0.011  0.001  0.014  0.026
   13  0.010  0.001  0.016  0.026
   14  0.010  0.001  0.016  0.026
   15  0.009  0.001  0.015  0.026
   16  0.011  0.001  0.014  0.026
   17  0.009  0.001  0.015  0.026
   18  0.009  0.001  0.015  0.026
   19  0.013  0.001  0.017  0.031
   20  0.011  0.001  0.019  0.031
   21  0.011  0.001  0.019  0.031
   22  0.014  0.001  0.017  0.032
   23  0.011  0.001  0.019  0.031
   24  0.014  0.001  0.017  0.032
   25  0.013  0.001  0.017  0.031
   26  0.013  0.001  0.017  0.031
   27  0.014  0.001  0.017  0.032
   28  0.008  0.000  0.000  0.008
   29  0.006  0.000  0.000  0.007
   30  0.006  0.000  0.000  0.007
   31  0.006  0.000  0.000  0.007
   32  0.006  0.000  0.000  0.007
   33  0.006  0.000  0.000  0.007
   34  0.006  0.000  0.000  0.007
   35  0.008  0.001  0.000  0.008
   36  0.002  0.002  0.004  0.008
   37  0.001  0.001  0.000  0.002
   38  0.000  0.000  0.000  0.000
   39  0.000  0.000  0.000  0.000
tot    0.332  0.027  0.303  0.662
 
band     8 # energy   -5.38152491 # occ.  2.00000000
 
ion      s      p      d    tot
    1  0.016  0.000  0.024  0.040
    2  0.014  0.000  0.022  0.036
    3  0.014  0.000  0.022  0.036
    4  0.014  0.000  0.022  0.036
    5  0.013  0.000  0.021  0.034
    6  0.014  0.000  0.022  0.036
    7  0.014  0.000  0.022  0.036
    8  0.014  0.000  0.022  0.036
    9  0.014  0.000  0.022  0.036
   10  0.000  0.000  0.023  0.024
   11  0.001  0.000  0.018  0.020
   12  0.000  0.000  0.023  0.023
   13  0.001  0.000  0.018  0.020
   14  0.001  0.000  0.018  0.019
   15  0.001  0.001  0.018  0.019
   16  0.000  0.000  0.023  0.023
   17  0.001  0.001  0.018  0.019
   18  0.001  0.001  0.018  0.019
   19  0.000  0.000  0.010  0.010
   20  0.000  0.000  0.014  0.014
   21  0.000  0.000  0.014  0.014
   22  0.000  0.000  0.012  0.012
   23  0.000  0.000  0.014  0.014
   24  0.000  0.000  0.012  0.012
   25  0.000  0.000  0.010  0.010
   26  0.000  0.000  0.010  0.010
   27  0.000  0.000  0.012  0.012
   28  0.007  0.000  0.008  0.015
   29  0.007  0.000  0.009  0.016
   30  0.007  0.000  0.009  0.016
   31  0.007  0.000  0.009  0.016
   32  0.007  0.000  0.009  0.016
   33  0.007  0.000  0.009  0.016
   34  0.007  0.000  0.009  0.016
   35  0.009  0.000  0.009  0.017
   36  0.005  0.000  0.010  0.014
   37  0.000  0.000  0.000  0.000
   38  0.000  0.000  0.000  0.000
   39  0.000  0.000  0.000  0.000
tot    0.195  0.006  0.562  0.764
 
band     9 # energy   -5.25256832 # occ.  2.00000000
 
ion      s      p      d    tot
    1  0.000  0.000  0.010  0.010
    2  0.002  0.001  0.004  0.006
    3  0.002  0.000  0.004  0.006
    4  0.000  0.000  0.003  0.003
    5  0.000  0.000  0.006  0.006
    6  0.001  0.000  0.004  0.005
    7  0.000  0.000  0.003  0.003
    8  0.001  0.000  0.003  0.005
    9  0.000  0.000  0.000  0.000
   10  0.012  0.001  0.027  0.040
   11  0.014  0.001  0.027  0.042
   12  0.000  0.000  0.062  0.062
   13  0.000  0.001  0.021  0.023
   14  0.010  0.001  0.025  0.036
   15  0.000  0.000  0.021  0.022
   16  0.017  0.001  0.013  0.031
   17  0.000  0.001  0.032  0.033
   18  0.000  0.000  0.025  0.025
   19  0.007  0.000  0.031  0.039
   20  0.019  0.001  0.035  0.055
   21  0.001  0.001  0.073  0.074
   22  0.000  0.000  0.072  0.072
   23  0.026  0.001  0.020  0.047
   24  0.004  0.000  0.035  0.039
   25  0.005  0.001  0.024  0.030
   26  0.000  0.002  0.008  0.010
   27  0.005  0.001  0.021  0.026
   28  0.000  0.000  0.002  0.002
   29  0.000  0.000  0.003  0.003
   30  0.000  0.000  0.003  0.004
   31  0.002  0.001  0.006  0.008
   32  0.001  0.000  0.004  0.005
   33  0.002  0.001  0.006  0.008
   34  0.001  0.000  0.003  0.004
   35  0.000  0.000  0.003  0.003
   36  0.000  0.001  0.007  0.007
   37  0.000  0.000  0.000  0.000
   38  0.000  0.001  0.000  0.001
   39  0.000  0.000  0.000  0.000
tot    0.133  0.018  0.647  0.799
 
band    10 # energy   -5.25256330 # occ.  2.00000000
 
ion      s      p      d    tot
    1  0.000  0.000  0.010  0.010
    2  0.000  0.000  0.003  0.003
    3  0.000  0.000  0.003  0.003
    4  0.002  0.001  0.004  0.007
    5  0.000  0.000  0.006  0.006
    6  0.001  0.000  0.003  0.004
    7  0.002  0.000  0.004  0.007
    8  0.001  0.000  0.003  0.004
    9  0.000  0.000  0.000  0.000
   10  0.008  0.000  0.041  0.049
   11  0.002  0.001  0.022  0.025
   12  0.019  0.001  0.006  0.027
   13  0.016  0.000  0.028  0.044
   14  0.006  0.001  0.023  0.031
   15  0.000  0.001  0.030  0.031
   16  0.003  0.000  0.055  0.058
   17  0.000  0.000  0.020  0.021
   18  0.000  0.001  0.028  0.028
   19  0.001  0.001  0.012  0.014
   20  0.012  0.001  0.050  0.063
   21  0.030  0.001  0.012  0.043
   22  0.006  0.001  0.013  0.020
   23  0.004  0.001  0.065  0.071
   24  0.002  0.000  0.050  0.052
   25  0.003  0.001  0.018  0.022
   26  0.008  0.000  0.035  0.043
   27  0.001  0.000  0.065  0.066
   28  0.000  0.000  0.002  0.002
   29  0.001  0.001  0.006  0.008
   30  0.002  0.001  0.005  0.007
   31  0.000  0.000  0.003  0.003
   32  0.001  0.001  0.004  0.006
   33  0.000  0.000  0.003  0.003
   34  0.001  0.000  0.005  0.006
   35  0.000  0.000  0.003  0.003
   36  0.000  0.001  0.007  0.007
   37  0.000  0.000  0.000  0.000
   38  0.000  0.001  0.000  0.001
   39  0.000  0.000  0.000  0.000
tot    0.133  0.018  0.647  0.799
 
band    11 # energy   -5.24855388 # occ.  2.00000000
 
ion      s      p      d    tot
    1  0.000  0.000  0.009  0.009
    2  0.000  0.000  0.006  0.006
    3  0.000  0.000  0.006  0.006
    4  0.000  0.000  0.006  0.006
    5  0.000  0.000  0.002  0.002
    6  0.000  0.000  0.006  0.006
    7  0.000  0.000  0.006  0.006
    8  0.000  0.000  0.006  0.006
    9  0.006  0.001  0.002  0.009
   10  0.000  0.000  0.053  0.054
   11  0.011  0.002  0.008  0.020
   12  0.000  0.000  0.052  0.053
   13  0.011  0.002  0.008  0.020
   14  0.011  0.002  0.008  0.020
   15  0.011  0.000  0.049  0.060
   16  0.000  0.000  0.052  0.053
   17  0.011  0.000  0.049  0.060
   18  0.011  0.000  0.049  0.060
   19  0.001  0.000  0.042  0.043
   20  0.013  0.001  0.025  0.039
   21  0.013  0.001  0.025  0.039
   22  0.003  0.001  0.011  0.015
   23  0.013  0.001  0.025  0.039
   24  0.003  0.001  0.011  0.015
   25  0.000  0.000  0.043  0.043
   26  0.001  0.000  0.042  0.043
   27  0.003  0.001  0.011  0.015
   28  0.004  0.000  0.000  0.005
   29  0.000  0.000  0.006  0.007
   30  0.000  0.000  0.006  0.007
   31  0.000  0.000  0.006  0.007
   32  0.000  0.000  0.006  0.007
   33  0.000  0.000  0.006  0.007
   34  0.000  0.000  0.006  0.007
   35  0.001  0.000  0.001  0.001
   36  0.000  0.003  0.000  0.003
   37  0.001  0.000  0.000  0.001
   38  0.000  0.000  0.000  0.000
   39  0.000  0.000  0.000  0.000
tot    0.131  0.019  0.649  0.800
 
band    12 # energy   -5.24597699 # occ.  2.00000000
 
ion      s      p      d    tot
    1  0.000  0.000  0.001  0.001
    2  0.000  0.000  0.002  0.003
    3  0.000  0.000  0.003  0.003
    4  0.001  0.001  0.005  0.007
    5  0.000  0.000  0.004  0.005
    6  0.001  0.000  0.004  0.006
    7  0.001  0.000  0.005  0.006
    8  0.000  0.000  0.003  0.004
    9  0.000  0.000  0.008  0.009
   10  0.001  0.001  0.028  0.030
   11  0.011  0.001  0.012  0.023
   12  0.000  0.001  0.023  0.025
   13  0.001  0.000  0.079  0.080
   14  0.006  0.000  0.048  0.054
   15  0.023  0.001  0.022  0.046
   16  0.002  0.000  0.034  0.037
   17  0.002  0.001  0.038  0.041
   18  0.012  0.001  0.031  0.043
   19  0.016  0.001  0.010  0.027
   20  0.000  0.001  0.035  0.035
   21  0.000  0.001  0.039  0.040
   22  0.001  0.001  0.022  0.025
   23  0.000  0.000  0.029  0.029
   24  0.008  0.001  0.024  0.034
   25  0.008  0.000  0.039  0.047
   26  0.001  0.000  0.064  0.065
   27  0.017  0.001  0.026  0.043
   28  0.000  0.000  0.006  0.006
   29  0.001  0.000  0.004  0.006
   30  0.001  0.000  0.004  0.006
   31  0.000  0.000  0.002  0.002
   32  0.000  0.000  0.003  0.004
   33  0.000  0.000  0.002  0.003
   34  0.001  0.000  0.003  0.004
   35  0.000  0.000  0.006  0.006
   36  0.000  0.000  0.001  0.001
   37  0.000  0.000  0.000  0.000
   38  0.000  0.000  0.000  0.000
   39  0.000  0.000  0.000  0.000
tot    0.118  0.016  0.672  0.806
 
band    13 # energy   -5.24597480 # occ.  2.00000000
 
ion      s      p      d    tot
    1  0.000  0.000  0.001  0.001
    2  0.001  0.001  0.005  0.007
    3  0.001  0.000  0.005  0.006
    4  0.000  0.000  0.002  0.003
    5  0.000  0.000  0.004  0.005
    6  0.000  0.000  0.003  0.004
    7  0.000  0.000  0.003  0.004
    8  0.001  0.000  0.004  0.006
    9  0.000  0.000  0.008  0.009
   10  0.001  0.001  0.029  0.031
   11  0.001  0.000  0.081  0.081
   12  0.002  0.000  0.034  0.037
   13  0.011  0.001  0.013  0.025
   14  0.006  0.000  0.045  0.051
   15  0.001  0.001  0.039  0.041
   16  0.000  0.001  0.023  0.024
   17  0.023  0.001  0.022  0.046
   18  0.013  0.001  0.030  0.044
   19  0.001  0.000  0.065  0.066
   20  0.000  0.001  0.034  0.035
   21  0.000  0.000  0.029  0.029
   22  0.016  0.001  0.026  0.043
   23  0.000  0.001  0.040  0.040
   24  0.009  0.001  0.025  0.035
   25  0.008  0.000  0.036  0.045
   26  0.016  0.001  0.011  0.027
   27  0.001  0.001  0.022  0.024
   28  0.000  0.000  0.006  0.006
   29  0.000  0.000  0.002  0.002
   30  0.000  0.000  0.002  0.003
   31  0.001  0.000  0.004  0.006
   32  0.001  0.000  0.003  0.005
   33  0.001  0.000  0.004  0.005
   34  0.000  0.000  0.003  0.004
   35  0.000  0.000  0.006  0.006
   36  0.000  0.000  0.001  0.001
   37  0.000  0.000  0.000  0.000
   38  0.000  0.000  0.000  0.000
   39  0.000  0.000  0.000  0.000
tot    0.118  0.016  0.672  0.806
 
band    14 # energy   -5.24411034 # occ.  2.00000000
 
ion      s      p      d    tot
    1  0.001  0.001  0.006  0.007
    2  0.000  0.000  0.005  0.006
    3  0.000  0.000  0.005  0.006
    4  0.000  0.000  0.005  0.006
    5  0.006  0.001  0.001  0.008
    6  0.000  0.000  0.005  0.006
    7  0.000  0.000  0.005  0.006
    8  0.000  0.000  0.005  0.006
    9  0.000  0.000  0.002  0.002
   10  0.012  0.001  0.013  0.026
   11  0.004  0.000  0.051  0.056
   12  0.012  0.001  0.013  0.026
   13  0.004  0.000  0.051  0.056
   14  0.005  0.000  0.051  0.056
   15  0.001  0.001  0.022  0.023
   16  0.012  0.001  0.013  0.026
   17  0.001  0.001  0.022  0.023
   18  0.001  0.001  0.022  0.023
   19  0.015  0.001  0.011  0.027
   20  0.000  0.001  0.029  0.030
   21  0.000  0.001  0.030  0.031
   22  0.005  0.000  0.066  0.072
   23  0.000  0.001  0.030  0.031
   24  0.006  0.000  0.065  0.071
   25  0.015  0.001  0.011  0.027
   26  0.015  0.001  0.011  0.027
   27  0.005  0.000  0.066  0.071
   28  0.001  0.001  0.006  0.008
   29  0.000  0.000  0.004  0.004
   30  0.000  0.000  0.004  0.005
   31  0.000  0.000  0.004  0.004
   32  0.000  0.000  0.004  0.005
   33  0.000  0.000  0.004  0.005
   34  0.000  0.000  0.004  0.005
   35  0.005  0.001  0.004  0.010
   36  0.000  0.000  0.000  0.001
   37  0.000  0.000  0.000  0.000
   38  0.000  0.000  0.000  0.000
   39  0.000  0.000  0.000  0.000
tot    0.131  0.017  0.653  0.801
 
band    15 # energy   -5.22125522 # occ.  2.00000000
 
ion      s      p      d    tot
    1  0.000  0.001  0.014  0.015
    2  0.001  0.000  0.009  0.010
    3  0.001  0.000  0.009  0.010
    4  0.001  0.000  0.009  0.010
    5  0.000  0.000  0.001  0.002
    6  0.001  0.000  0.009  0.010
    7  0.001  0.000  0.009  0.010
    8  0.001  0.000  0.009  0.010
    9  0.007  0.000  0.002  0.010
   10  0.004  0.000  0.028  0.032
   11  0.000  0.000  0.052  0.052
   12  0.004  0.000  0.028  0.032
   13  0.000  0.000  0.052  0.052
   14  0.000  0.000  0.052  0.052
   15  0.001  0.000  0.016  0.018
   16  0.004  0.000  0.028  0.032
   17  0.001  0.000  0.016  0.018
   18  0.001  0.000  0.016  0.018
   19  0.002  0.001  0.005  0.008
   20  0.001  0.000  0.049  0.049
   21  0.001  0.000  0.049  0.049
   22  0.003  0.000  0.049  0.053
   23  0.001  0.000  0.049  0.049
   24  0.003  0.000  0.050  0.053
   25  0.002  0.001  0.005  0.008
   26  0.002  0.001  0.005  0.008
   27  0.003  0.000  0.049  0.053
   28  0.009  0.001  0.001  0.011
   29  0.002  0.000  0.012  0.014
   30  0.002  0.000  0.012  0.014
   31  0.002  0.000  0.012  0.014
   32  0.002  0.000  0.012  0.014
   33  0.002  0.000  0.012  0.014
   34  0.002  0.000  0.012  0.014
   35  0.001  0.000  0.021  0.023
   36  0.000  0.000  0.000  0.000
   37  0.000  0.000  0.000  0.000
   38  0.000  0.000  0.000  0.000
   39  0.000  0.000  0.000  0.000
tot    0.065  0.007  0.767  0.838
 
band    16 # energy   -5.20977987 # occ.  2.00000000
 
ion      s      p      d    tot
    1  0.000  0.000  0.018  0.018
    2  0.002  0.000  0.007  0.009
    3  0.000  0.000  0.010  0.011
    4  0.002  0.000  0.006  0.009
    5  0.000  0.000  0.008  0.008
    6  0.002  0.001  0.006  0.009
    7  0.000  0.000  0.010  0.011
    8  0.002  0.001  0.007  0.010
    9  0.000  0.000  0.006  0.006
   10  0.000  0.000  0.065  0.065
   11  0.000  0.000  0.038  0.038
   12  0.007  0.000  0.041  0.048
   13  0.000  0.000  0.033  0.033
   14  0.000  0.000  0.013  0.014
   15  0.008  0.000  0.022  0.030
   16  0.008  0.000  0.036  0.044
   17  0.006  0.000  0.035  0.041
   18  0.000  0.000  0.091  0.092
   19  0.002  0.000  0.030  0.033
   20  0.000  0.000  0.061  0.062
   21  0.003  0.000  0.025  0.028
   22  0.000  0.000  0.026  0.027
   23  0.004  0.000  0.016  0.021
   24  0.000  0.000  0.016  0.016
   25  0.000  0.000  0.037  0.037
   26  0.001  0.000  0.032  0.034
   27  0.001  0.000  0.028  0.029
   28  0.000  0.000  0.013  0.013
   29  0.001  0.000  0.006  0.007
   30  0.002  0.000  0.004  0.007
   31  0.000  0.000  0.006  0.007
   32  0.001  0.000  0.005  0.006
   33  0.003  0.000  0.004  0.007
   34  0.001  0.000  0.005  0.006
   35  0.000  0.000  0.005  0.005
   36  0.000  0.000  0.003  0.003
   37  0.000  0.000  0.000  0.000
   38  0.000  0.000  0.000  0.000
   39  0.000  0.000  0.000  0.000
tot    0.057  0.008  0.777  0.843
 
band    17 # energy   -5.20975416 # occ.  2.00000000
 
ion      s      p      d    tot
    1  0.000  0.000  0.018  0.018
    2  0.001  0.001  0.009  0.010
    3  0.003  0.001  0.005  0.009
    4  0.000  0.000  0.010  0.011
    5  0.000  0.000  0.008  0.008
    6  0.001  0.000  0.009  0.010
    7  0.003  0.001  0.005  0.009
    8  0.001  0.000  0.008  0.010
    9  0.000  0.000  0.006  0.006
   10  0.010  0.000  0.030  0.041
   11  0.000  0.000  0.018  0.018
   12  0.003  0.000  0.053  0.056
   13  0.000  0.000  0.023  0.023
   14  0.000  0.000  0.043  0.043
   15  0.002  0.000  0.077  0.079
   16  0.002  0.000  0.058  0.060
   17  0.003  0.000  0.064  0.067
   18  0.009  0.000  0.008  0.017
   19  0.000  0.000  0.035  0.036
   20  0.005  0.000  0.007  0.012
   21  0.002  0.000  0.044  0.046
   22  0.000  0.000  0.021  0.021
   23  0.001  0.000  0.052  0.053
   24  0.001  0.000  0.031  0.032
   25  0.002  0.000  0.030  0.032
   26  0.001  0.000  0.034  0.035
   27  0.000  0.000  0.019  0.019
   28  0.000  0.000  0.013  0.013
   29  0.002  0.000  0.004  0.007
   30  0.000  0.000  0.006  0.006
   31  0.002  0.000  0.004  0.007
   32  0.002  0.000  0.005  0.007
   33  0.000  0.000  0.006  0.007
   34  0.001  0.000  0.006  0.007
   35  0.000  0.000  0.005  0.005
   36  0.000  0.000  0.003  0.003
   37  0.000  0.000  0.000  0.000
   38  0.000  0.000  0.000  0.000
   39  0.000  0.000  0.000  0.000
tot    0.057  0.008  0.777  0.843
 
band    18 # energy   -5.20938286 # occ.  2.00000000
 
ion      s      p      d    tot
    1  0.001  0.000  0.000  0.001
    2  0.003  0.000  0.012  0.015
    3  0.003  0.000  0.012  0.015
    4  0.003  0.000  0.012  0.015
    5  0.008  0.000  0.008  0.017
    6  0.003  0.000  0.012  0.015
    7  0.003  0.000  0.012  0.015
    8  0.003  0.000  0.012  0.015
    9  0.001  0.000  0.025  0.027
   10  0.000  0.000  0.035  0.035
   11  0.000  0.000  0.010  0.011
   12  0.000  0.000  0.036  0.037
   13  0.000  0.000  0.010  0.010
   14  0.000  0.000  0.010  0.010
   15  0.006  0.000  0.033  0.039
   16  0.000  0.000  0.036  0.037
   17  0.006  0.000  0.033  0.039
   18  0.006  0.000  0.033  0.040
   19  0.000  0.000  0.025  0.025
   20  0.003  0.000  0.039  0.042
   21  0.003  0.000  0.039  0.042
   22  0.000  0.001  0.010  0.011
   23  0.003  0.000  0.039  0.042
   24  0.000  0.001  0.010  0.011
   25  0.000  0.000  0.024  0.024
   26  0.000  0.000  0.025  0.025
   27  0.000  0.001  0.010  0.011
   28  0.003  0.000  0.004  0.006
   29  0.006  0.000  0.016  0.022
   30  0.006  0.000  0.015  0.022
   31  0.006  0.000  0.016  0.022
   32  0.006  0.000  0.016  0.022
   33  0.006  0.000  0.015  0.022
   34  0.006  0.000  0.016  0.022
   35  0.014  0.000  0.013  0.027
   36  0.005  0.001  0.013  0.019
   37  0.000  0.000  0.000  0.000
   38  0.000  0.000  0.000  0.000
   39  0.000  0.000  0.000  0.000
tot    0.117  0.008  0.686  0.811
 
band    19 # energy   -5.19938799 # occ.  2.00000000
 
ion      s      p      d    tot
    1  0.000  0.000  0.005  0.006
    2  0.003  0.000  0.006  0.010
    3  0.000  0.000  0.010  0.010
    4  0.003  0.000  0.006  0.010
    5  0.000  0.000  0.011  0.011
    6  0.002  0.000  0.007  0.009
    7  0.000  0.000  0.010  0.010
    8  0.002  0.001  0.007  0.009
    9  0.000  0.000  0.018  0.018
   10  0.004  0.000  0.021  0.025
   11  0.003  0.000  0.050  0.052
   12  0.001  0.000  0.035  0.036
   13  0.002  0.000  0.057  0.059
   14  0.008  0.000  0.011  0.019
   15  0.000  0.000  0.028  0.028
   16  0.001  0.000  0.033  0.034
   17  0.000  0.000  0.025  0.025
   18  0.001  0.000  0.043  0.044
   19  0.002  0.000  0.049  0.051
   20  0.000  0.000  0.046  0.046
   21  0.000  0.000  0.020  0.020
   22  0.002  0.000  0.061  0.063
   23  0.000  0.000  0.024  0.024
   24  0.010  0.000  0.019  0.030
   25  0.006  0.000  0.011  0.017
   26  0.001  0.000  0.056  0.058
   27  0.003  0.000  0.055  0.058
   28  0.000  0.000  0.003  0.004
   29  0.000  0.000  0.008  0.008
   30  0.002  0.000  0.003  0.005
   31  0.000  0.000  0.007  0.008
   32  0.001  0.001  0.007  0.008
   33  0.002  0.000  0.003  0.005
   34  0.001  0.001  0.008  0.009
   35  0.000  0.000  0.010  0.010
   36  0.000  0.000  0.003  0.003
   37  0.000  0.000  0.000  0.000
   38  0.000  0.000  0.000  0.000
   39  0.000  0.000  0.000  0.000
tot    0.060  0.008  0.775  0.843
 
band    20 # energy   -5.19934782 # occ.  2.00000000
 
ion      s      p      d    tot
    1  0.000  0.000  0.005  0.006
    2  0.000  0.000  0.009  0.010
    3  0.003  0.001  0.006  0.009
    4  0.000  0.000  0.009  0.010
    5  0.000  0.000  0.011  0.011
    6  0.002  0.000  0.008  0.010
    7  0.003  0.001  0.006  0.009
    8  0.001  0.000  0.009  0.010
    9  0.000  0.000  0.018  0.018
   10  0.000  0.000  0.038  0.038
   11  0.006  0.000  0.028  0.034
   12  0.003  0.000  0.024  0.028
   13  0.007  0.000  0.021  0.028
   14  0.000  0.000  0.068  0.068
   15  0.000  0.000  0.036  0.037
   16  0.003  0.000  0.026  0.029
   17  0.001  0.000  0.039  0.040
   18  0.000  0.000  0.021  0.021
   19  0.004  0.000  0.028  0.033
   20  0.000  0.000  0.014  0.014
   21  0.000  0.000  0.040  0.040
   22  0.008  0.000  0.029  0.037
   23  0.000  0.000  0.036  0.036
   24  0.000  0.000  0.071  0.071
   25  0.000  0.000  0.067  0.067
   26  0.005  0.000  0.021  0.026
   27  0.007  0.000  0.035  0.043
   28  0.000  0.000  0.003  0.004
   29  0.002  0.001  0.004  0.006
   30  0.000  0.000  0.009  0.009
   31  0.002  0.001  0.004  0.007
   32  0.001  0.000  0.005  0.006
   33  0.000  0.000  0.009  0.010
   34  0.001  0.000  0.004  0.005
   35  0.000  0.000  0.010  0.010
   36  0.000  0.000  0.003  0.003
   37  0.000  0.000  0.000  0.000
   38  0.000  0.000  0.000  0.000
   39  0.000  0.000  0.000  0.000