PROCAR new format
# of k-points:   10         # of bands:  252         # of ions:   37

 k-point     1 :    0.00000000 0.00000000 0.00000000     weight = 0.01562500

band     1 # energy  -16.74871411 # occ.  2.00000000
 
ion      s      p      d    tot
    1  0.000  0.000  0.000  0.000
    2  0.000  0.000  0.000  0.000
    3  0.000  0.000  0.000  0.000
    4  0.000  0.000  0.000  0.000
    5  0.000  0.000  0.000  0.000
    6  0.000  0.000  0.000  0.000
    7  0.000  0.000  0.000  0.000
    8  0.000  0.000  0.000  0.000
    9  0.000  0.000  0.000  0.000
   10  0.000  0.000  0.000  0.000
   11  0.000  0.000  0.000  0.000
   12  0.000  0.000  0.000  0.000
   13  0.000  0.000  0.000  0.000
   14  0.000  0.000  0.000  0.000
   15  0.000  0.000  0.000  0.000
   16  0.000  0.000  0.000  0.000
   17  0.000  0.000  0.000  0.000
   18  0.000  0.000  0.000  0.000
   19  0.000  0.000  0.000  0.000
   20  0.000  0.000  0.000  0.000
   21  0.000  0.000  0.000  0.000
   22  0.000  0.000  0.000  0.000
   23  0.000  0.000  0.000  0.000
   24  0.000  0.000  0.000  0.000
   25  0.000  0.000  0.000  0.000
   26  0.000  0.000  0.000  0.000
   27  0.000  0.000  0.000  0.000
   28  0.000  0.000  0.000  0.000
   29  0.000  0.000  0.000  0.000
   30  0.000  0.000  0.000  0.000
   31  0.000  0.000  0.000  0.000
   32  0.000  0.000  0.000  0.000
   33  0.000  0.000  0.000  0.000
   34  0.000  0.000  0.000  0.000
   35  0.000  0.000  0.000  0.000
   36  0.035  0.036  0.070  0.141
   37  0.754  0.015  0.000  0.768
tot    0.789  0.051  0.070  0.909
 
band     2 # energy   -8.19849566 # occ.  2.00000000
 
ion      s      p      d    tot
    1  0.007  0.001  0.000  0.007
    2  0.006  0.001  0.000  0.007
    3  0.006  0.001  0.000  0.007
    4  0.006  0.001  0.000  0.007
    5  0.006  0.001  0.000  0.007
    6  0.006  0.001  0.000  0.007
    7  0.006  0.001  0.000  0.007
    8  0.006  0.001  0.000  0.007
    9  0.006  0.001  0.000  0.007
   10  0.026  0.000  0.000  0.027
   11  0.026  0.000  0.000  0.027
   12  0.026  0.000  0.000  0.027
   13  0.026  0.000  0.000  0.027
   14  0.026  0.000  0.000  0.027
   15  0.026  0.000  0.000  0.026
   16  0.026  0.000  0.000  0.027
   17  0.026  0.000  0.000  0.026
   18  0.026  0.000  0.000  0.026
   19  0.024  0.000  0.000  0.024
   20  0.026  0.000  0.000  0.026
   21  0.026  0.000  0.000  0.026
   22  0.024  0.000  0.000  0.025
   23  0.026  0.000  0.000  0.026
   24  0.024  0.000  0.000  0.025
   25  0.024  0.000  0.000  0.024
   26  0.024  0.000  0.000  0.024
   27  0.024  0.000  0.000  0.025
   28  0.005  0.000  0.000  0.005
   29  0.005  0.000  0.000  0.006
   30  0.005  0.000  0.000  0.006
   31  0.005  0.000  0.000  0.006
   32  0.005  0.000  0.000  0.006
   33  0.005  0.000  0.000  0.006
   34  0.005  0.000  0.000  0.006
   35  0.005  0.000  0.000  0.006
   36  0.008  0.001  0.000  0.009
   37  0.001  0.000  0.000  0.001
tot    0.567  0.012  0.003  0.582
 
band     3 # energy   -7.03850847 # occ.  2.00000000
 
ion      s      p      d    tot
    1  0.016  0.000  0.001  0.018
    2  0.016  0.000  0.001  0.018
    3  0.016  0.000  0.001  0.018
    4  0.016  0.000  0.001  0.018
    5  0.016  0.000  0.001  0.018
    6  0.016  0.000  0.001  0.018
    7  0.016  0.000  0.001  0.018
    8  0.016  0.000  0.001  0.018
    9  0.017  0.000  0.001  0.018
   10  0.011  0.001  0.003  0.015
   11  0.010  0.001  0.002  0.014
   12  0.011  0.001  0.003  0.015
   13  0.010  0.001  0.002  0.014
   14  0.010  0.001  0.002  0.014
   15  0.011  0.001  0.002  0.015
   16  0.011  0.001  0.003  0.015
   17  0.011  0.001  0.002  0.015
   18  0.011  0.001  0.002  0.015
   19  0.013  0.001  0.003  0.017
   20  0.014  0.001  0.003  0.018
   21  0.014  0.001  0.003  0.018
   22  0.013  0.001  0.003  0.017
   23  0.014  0.001  0.003  0.018
   24  0.013  0.001  0.003  0.017
   25  0.013  0.001  0.003  0.017
   26  0.013  0.001  0.003  0.017
   27  0.013  0.001  0.003  0.017
   28  0.014  0.000  0.001  0.016
   29  0.015  0.001  0.001  0.016
   30  0.015  0.001  0.001  0.016
   31  0.015  0.001  0.001  0.016
   32  0.015  0.001  0.001  0.016
   33  0.015  0.001  0.001  0.016
   34  0.015  0.001  0.001  0.016
   35  0.015  0.000  0.001  0.016
   36  0.019  0.001  0.001  0.022
   37  0.001  0.001  0.000  0.002
tot    0.501  0.033  0.064  0.599
 
band     4 # energy   -6.07869265 # occ.  2.00000000
 
ion      s      p      d    tot
    1  0.000  0.001  0.010  0.010
    2  0.005  0.000  0.007  0.012
    3  0.005  0.000  0.007  0.012
    4  0.005  0.000  0.007  0.012
    5  0.002  0.000  0.003  0.005
    6  0.005  0.000  0.007  0.012
    7  0.005  0.000  0.007  0.012
    8  0.005  0.000  0.007  0.012
    9  0.026  0.001  0.001  0.028
   10  0.013  0.000  0.018  0.032
   11  0.008  0.002  0.010  0.020
   12  0.013  0.000  0.018  0.032
   13  0.008  0.002  0.010  0.020
   14  0.008  0.002  0.010  0.020
   15  0.011  0.001  0.009  0.021
   16  0.013  0.000  0.018  0.032
   17  0.011  0.001  0.009  0.021
   18  0.011  0.001  0.010  0.022
   19  0.000  0.001  0.018  0.020
   20  0.023  0.001  0.017  0.041
   21  0.023  0.001  0.017  0.041
   22  0.010  0.002  0.004  0.016
   23  0.023  0.001  0.017  0.041
   24  0.010  0.002  0.004  0.016
   25  0.000  0.001  0.018  0.020
   26  0.000  0.001  0.018  0.020
   27  0.010  0.002  0.004  0.016
   28  0.008  0.000  0.001  0.009
   29  0.005  0.000  0.006  0.011
   30  0.005  0.000  0.006  0.011
   31  0.005  0.000  0.006  0.011
   32  0.005  0.000  0.006  0.011
   33  0.005  0.000  0.006  0.011
   34  0.005  0.000  0.006  0.011
   35  0.020  0.001  0.002  0.022
   36  0.004  0.002  0.021  0.027
   37  0.001  0.005  0.000  0.006
tot    0.314  0.039  0.346  0.699
 
band     5 # energy   -6.06619057 # occ.  2.00000000
 
ion      s      p      d    tot
    1  0.030  0.000  0.011  0.042
    2  0.017  0.000  0.017  0.034
    3  0.017  0.000  0.017  0.034
    4  0.017  0.000  0.017  0.034
    5  0.020  0.000  0.017  0.037
    6  0.017  0.000  0.017  0.034
    7  0.017  0.000  0.017  0.034
    8  0.017  0.000  0.017  0.034
    9  0.006  0.001  0.020  0.026
   10  0.001  0.000  0.026  0.028
   11  0.002  0.001  0.019  0.022
   12  0.001  0.000  0.026  0.028
   13  0.002  0.001  0.019  0.022
   14  0.002  0.001  0.019  0.022
   15  0.024  0.002  0.012  0.037
   16  0.001  0.000  0.026  0.028
   17  0.024  0.002  0.012  0.037
   18  0.024  0.002  0.012  0.037
   19  0.000  0.001  0.006  0.007
   20  0.005  0.001  0.005  0.010
   21  0.004  0.001  0.005  0.010
   22  0.006  0.002  0.001  0.009
   23  0.004  0.001  0.005  0.010
   24  0.006  0.002  0.001  0.009
   25  0.000  0.001  0.006  0.007
   26  0.000  0.001  0.006  0.007
   27  0.006  0.002  0.001  0.009
   28  0.002  0.000  0.002  0.004
   29  0.003  0.000  0.002  0.005
   30  0.003  0.000  0.002  0.005
   31  0.003  0.000  0.002  0.005
   32  0.003  0.000  0.002  0.005
   33  0.003  0.000  0.002  0.005
   34  0.003  0.000  0.002  0.005
   35  0.000  0.000  0.002  0.002
   36  0.016  0.001  0.000  0.017
   37  0.001  0.001  0.000  0.002
tot    0.308  0.022  0.378  0.708
 
band     6 # energy   -6.04263647 # occ.  2.00000000
 
ion      s      p      d    tot
    1  0.000  0.001  0.010  0.010
    2  0.005  0.001  0.003  0.008
    3  0.000  0.000  0.003  0.003
    4  0.005  0.001  0.003  0.009
    5  0.000  0.001  0.005  0.006
    6  0.006  0.001  0.004  0.011
    7  0.000  0.000  0.003  0.003
    8  0.006  0.001  0.004  0.011
    9  0.000  0.000  0.002  0.002
   10  0.048  0.002  0.004  0.054
   11  0.010  0.003  0.015  0.029
   12  0.012  0.001  0.031  0.044
   13  0.011  0.003  0.015  0.029
   14  0.043  0.000  0.013  0.056
   15  0.000  0.002  0.010  0.012
   16  0.012  0.001  0.031  0.044
   17  0.000  0.002  0.010  0.012
   18  0.000  0.001  0.011  0.012
   19  0.005  0.003  0.008  0.016
   20  0.059  0.002  0.007  0.068
   21  0.015  0.001  0.029  0.045
   22  0.002  0.001  0.017  0.020
   23  0.015  0.001  0.029  0.045
   24  0.008  0.001  0.007  0.016
   25  0.019  0.000  0.014  0.034
   26  0.005  0.003  0.008  0.016
   27  0.002  0.001  0.017  0.020
   28  0.000  0.001  0.002  0.002
   29  0.005  0.001  0.003  0.009
   30  0.003  0.001  0.003  0.006
   31  0.005  0.001  0.003  0.009
   32  0.000  0.000  0.002  0.003
   33  0.003  0.001  0.003  0.006
   34  0.000  0.000  0.002  0.003
   35  0.000  0.000  0.003  0.003
   36  0.000  0.002  0.013  0.015
   37  0.000  0.000  0.000  0.000
tot    0.305  0.043  0.347  0.695
 
band     7 # energy   -6.04261815 # occ.  2.00000000
 
ion      s      p      d    tot
    1  0.000  0.001  0.010  0.010
    2  0.003  0.001  0.003  0.007
    3  0.007  0.001  0.003  0.012
    4  0.002  0.001  0.003  0.007
    5  0.000  0.001  0.005  0.006
    6  0.001  0.000  0.003  0.004
    7  0.007  0.001  0.003  0.012
    8  0.001  0.000  0.003  0.004
    9  0.000  0.000  0.002  0.002
   10  0.000  0.000  0.040  0.040
   11  0.032  0.001  0.014  0.048
   12  0.035  0.002  0.013  0.051
   13  0.032  0.001  0.014  0.047
   14  0.000  0.004  0.016  0.020
   15  0.000  0.001  0.011  0.012
   16  0.036  0.002  0.013  0.051
   17  0.000  0.001  0.011  0.012
   18  0.000  0.003  0.010  0.012
   19  0.015  0.001  0.012  0.028
   20  0.000  0.001  0.036  0.037
   21  0.044  0.002  0.014  0.060
   22  0.006  0.001  0.010  0.018
   23  0.045  0.002  0.014  0.060
   24  0.000  0.001  0.021  0.022
   25  0.000  0.004  0.006  0.010
   26  0.014  0.001  0.012  0.027
   27  0.006  0.001  0.010  0.018
   28  0.000  0.001  0.002  0.002
   29  0.000  0.000  0.003  0.003
   30  0.003  0.001  0.003  0.006
   31  0.000  0.000  0.003  0.003
   32  0.005  0.001  0.003  0.009
   33  0.003  0.001  0.003  0.006
   34  0.005  0.001  0.003  0.009
   35  0.000  0.000  0.003  0.003
   36  0.000  0.002  0.013  0.015
   37  0.000  0.000  0.000  0.000
tot    0.305  0.043  0.347  0.695
 
band     8 # energy   -6.01720341 # occ.  2.00000000
 
ion      s      p      d    tot
    1  0.006  0.001  0.000  0.007
    2  0.000  0.001  0.005  0.005
    3  0.000  0.001  0.005  0.005
    4  0.000  0.001  0.005  0.005
    5  0.010  0.002  0.003  0.014
    6  0.000  0.001  0.005  0.005
    7  0.000  0.001  0.005  0.005
    8  0.000  0.001  0.005  0.005
    9  0.002  0.000  0.000  0.003
   10  0.009  0.003  0.009  0.021
   11  0.027  0.001  0.010  0.038
   12  0.009  0.003  0.009  0.020
   13  0.027  0.001  0.010  0.038
   14  0.027  0.001  0.010  0.037
   15  0.000  0.000  0.025  0.026
   16  0.009  0.003  0.009  0.020
   17  0.000  0.000  0.025  0.026
   18  0.000  0.000  0.025  0.026
   19  0.035  0.002  0.007  0.043
   20  0.002  0.002  0.018  0.022
   21  0.002  0.002  0.017  0.021
   22  0.000  0.000  0.030  0.030
   23  0.002  0.002  0.017  0.021
   24  0.000  0.000  0.030  0.030
   25  0.033  0.002  0.007  0.042
   26  0.035  0.002  0.007  0.043
   27  0.000  0.000  0.030  0.030
   28  0.001  0.001  0.008  0.011
   29  0.004  0.000  0.008  0.012
   30  0.004  0.000  0.008  0.012
   31  0.004  0.000  0.008  0.012
   32  0.004  0.000  0.008  0.012
   33  0.004  0.000  0.008  0.012
   34  0.004  0.000  0.008  0.012
   35  0.013  0.000  0.001  0.014
   36  0.013  0.000  0.008  0.021
   37  0.000  0.000  0.000  0.000
tot    0.289  0.033  0.388  0.710
 
band     9 # energy   -6.01501151 # occ.  2.00000000
 
ion      s      p      d    tot
    1  0.000  0.001  0.002  0.003
    2  0.001  0.001  0.004  0.006
    3  0.007  0.001  0.003  0.012
    4  0.004  0.001  0.004  0.009
    5  0.000  0.000  0.006  0.006
    6  0.003  0.001  0.003  0.006
    7  0.008  0.001  0.004  0.013
    8  0.000  0.000  0.003  0.004
    9  0.000  0.001  0.010  0.011
   10  0.013  0.000  0.016  0.029
   11  0.007  0.001  0.020  0.028
   12  0.001  0.004  0.004  0.009
   13  0.002  0.001  0.029  0.031
   14  0.017  0.002  0.007  0.025
   15  0.027  0.002  0.024  0.053
   16  0.006  0.003  0.009  0.017
   17  0.006  0.002  0.034  0.042
   18  0.060  0.001  0.009  0.070
   19  0.015  0.001  0.022  0.037
   20  0.001  0.001  0.013  0.014
   21  0.000  0.003  0.006  0.009
   22  0.005  0.003  0.021  0.028
   23  0.000  0.002  0.009  0.011
   24  0.044  0.001  0.011  0.056
   25  0.033  0.002  0.004  0.040
   26  0.003  0.000  0.033  0.036
   27  0.020  0.002  0.017  0.039
   28  0.000  0.000  0.006  0.006
   29  0.001  0.000  0.003  0.004
   30  0.003  0.001  0.002  0.006
   31  0.000  0.000  0.002  0.002
   32  0.006  0.001  0.003  0.009
   33  0.001  0.000  0.002  0.004
   34  0.005  0.001  0.003  0.009
   35  0.000  0.001  0.005  0.006
   36  0.000  0.000  0.001  0.001
   37  0.000  0.000  0.000  0.000
tot    0.302  0.042  0.350  0.693
 
band    10 # energy   -6.01501013 # occ.  2.00000000
 
ion      s      p      d    tot
    1  0.000  0.001  0.002  0.003
    2  0.007  0.001  0.003  0.011
    3  0.001  0.000  0.004  0.005
    4  0.004  0.001  0.003  0.007
    5  0.000  0.000  0.006  0.006
    6  0.005  0.001  0.004  0.010
    7  0.000  0.000  0.003  0.004
    8  0.008  0.001  0.004  0.013
    9  0.000  0.001  0.010  0.011
   10  0.001  0.004  0.003  0.008
   11  0.010  0.001  0.017  0.028
   12  0.013  0.001  0.015  0.028
   13  0.015  0.001  0.008  0.025
   14  0.001  0.001  0.030  0.032
   15  0.035  0.002  0.020  0.057
   16  0.008  0.002  0.010  0.020
   17  0.056  0.001  0.010  0.068
   18  0.003  0.002  0.035  0.040
   19  0.019  0.001  0.018  0.038
   20  0.000  0.003  0.006  0.009
   21  0.001  0.001  0.013  0.014
   22  0.041  0.001  0.012  0.054
   23  0.000  0.002  0.010  0.012
   24  0.002  0.003  0.021  0.026
   25  0.001  0.000  0.035  0.036
   26  0.031  0.002  0.006  0.039
   27  0.026  0.002  0.015  0.043
   28  0.000  0.000  0.006  0.006
   29  0.004  0.001  0.002  0.007
   30  0.002  0.000  0.003  0.005
   31  0.005  0.001  0.003  0.009
   32  0.000  0.000  0.002  0.002
   33  0.004  0.001  0.003  0.008
   34  0.001  0.000  0.002  0.003
   35  0.000  0.001  0.005  0.006
   36  0.000  0.000  0.001  0.001
   37  0.000  0.000  0.000  0.000
tot    0.302  0.042  0.350  0.693
 
band    11 # energy   -5.99685603 # occ.  2.00000000
 
ion      s      p      d    tot
    1  0.002  0.001  0.002  0.006
    2  0.000  0.000  0.003  0.003
    3  0.000  0.000  0.003  0.003
    4  0.000  0.000  0.003  0.003
    5  0.005  0.000  0.000  0.006
    6  0.000  0.000  0.003  0.003
    7  0.000  0.000  0.003  0.003
    8  0.000  0.000  0.003  0.003
    9  0.001  0.000  0.002  0.003
   10  0.016  0.001  0.005  0.022
   11  0.001  0.000  0.019  0.021
   12  0.016  0.001  0.005  0.022
   13  0.001  0.000  0.019  0.021
   14  0.001  0.000  0.019  0.021
   15  0.000  0.001  0.012  0.013
   16  0.016  0.001  0.005  0.022
   17  0.000  0.001  0.012  0.013
   18  0.000  0.001  0.012  0.013
   19  0.000  0.001  0.024  0.025
   20  0.007  0.001  0.026  0.034
   21  0.007  0.001  0.026  0.034
   22  0.019  0.001  0.018  0.038
   23  0.007  0.001  0.026  0.034
   24  0.019  0.001  0.018  0.038
   25  0.000  0.001  0.024  0.025
   26  0.000  0.001  0.024  0.025
   27  0.019  0.001  0.018  0.038
   28  0.026  0.000  0.010  0.036
   29  0.013  0.000  0.013  0.026
   30  0.013  0.000  0.013  0.026
   31  0.013  0.000  0.013  0.026
   32  0.013  0.000  0.013  0.026
   33  0.013  0.000  0.013  0.026
   34  0.013  0.000  0.013  0.026
   35  0.004  0.001  0.018  0.022
   36  0.011  0.000  0.017  0.028
   37  0.000  0.000  0.000  0.000
tot    0.259  0.016  0.459  0.734
 
band    12 # energy   -5.58173226 # occ.  2.00000000
 
ion      s      p      d    tot
    1  0.002  0.000  0.001  0.003
    2  0.000  0.001  0.008  0.009
    3  0.000  0.001  0.008  0.009
    4  0.000  0.001  0.008  0.009
    5  0.017  0.002  0.000  0.019
    6  0.000  0.001  0.008  0.009
    7  0.000  0.001  0.008  0.009
    8  0.000  0.001  0.008  0.009
    9  0.008  0.001  0.002  0.011
   10  0.001  0.000  0.043  0.044
   11  0.007  0.002  0.008  0.017
   12  0.001  0.000  0.043  0.043
   13  0.007  0.002  0.008  0.017
   14  0.007  0.002  0.008  0.017
   15  0.013  0.001  0.020  0.035
   16  0.001  0.000  0.043  0.043
   17  0.013  0.001  0.020  0.035
   18  0.013  0.001  0.020  0.035
   19  0.008  0.001  0.028  0.037
   20  0.007  0.003  0.015  0.025
   21  0.007  0.003  0.015  0.025
   22  0.000  0.000  0.030  0.031
   23  0.007  0.003  0.015  0.025
   24  0.000  0.000  0.030  0.031
   25  0.008  0.001  0.028  0.037
   26  0.008  0.001  0.028  0.037
   27  0.000  0.000  0.030  0.031
   28  0.002  0.000  0.002  0.004
   29  0.000  0.001  0.006  0.006
   30  0.000  0.001  0.006  0.006
   31  0.000  0.001  0.006  0.006
   32  0.000  0.001  0.006  0.006
   33  0.000  0.001  0.006  0.006
   34  0.000  0.001  0.006  0.006
   35  0.005  0.000  0.000  0.005
   36  0.030  0.003  0.010  0.043
   37  0.003  0.010  0.000  0.013
tot    0.177  0.045  0.529  0.751
 
band    13 # energy   -5.55176466 # occ.  2.00000000
 
ion      s      p      d    tot
    1  0.000  0.001  0.004  0.004
    2  0.001  0.001  0.005  0.007
    3  0.010  0.001  0.005  0.016
    4  0.001  0.001  0.005  0.007
    5  0.000  0.001  0.011  0.012
    6  0.004  0.001  0.004  0.009
    7  0.010  0.001  0.005  0.016
    8  0.004  0.001  0.004  0.009
    9  0.000  0.000  0.010  0.010
   10  0.000  0.001  0.045  0.046
   11  0.016  0.001  0.021  0.038
   12  0.005  0.002  0.019  0.026
   13  0.016  0.001  0.021  0.038
   14  0.000  0.000  0.056  0.056
   15  0.002  0.000  0.021  0.023
   16  0.005  0.002  0.019  0.026
   17  0.002  0.000  0.021  0.023
   18  0.000  0.001  0.013  0.014
   19  0.004  0.000  0.019  0.024
   20  0.000  0.000  0.062  0.062
   21  0.018  0.001  0.020  0.039
   22  0.004  0.001  0.018  0.024
   23  0.018  0.001  0.020  0.039
   24  0.000  0.001  0.040  0.041
   25  0.000  0.001  0.010  0.011
   26  0.004  0.000  0.019  0.024
   27  0.004  0.001  0.018  0.024
   28  0.000  0.000  0.007  0.008
   29  0.003  0.001  0.004  0.007
   30  0.008  0.001  0.004  0.014
   31  0.003  0.001  0.004  0.007
   32  0.002  0.001  0.004  0.006
   33  0.008  0.001  0.004  0.014
   34  0.002  0.001  0.004  0.006
   35  0.000  0.000  0.003  0.003
   36  0.000  0.002  0.014  0.016
   37  0.000  0.000  0.000  0.000
tot    0.155  0.031  0.564  0.750
 
band    14 # energy   -5.55175790 # occ.  2.00000000
 
ion      s      p      d    tot
    1  0.000  0.001  0.004  0.004
    2  0.009  0.001  0.004  0.014
    3  0.000  0.000  0.005  0.005
    4  0.009  0.001  0.004  0.014
    5  0.000  0.001  0.011  0.012
    6  0.006  0.001  0.005  0.012
    7  0.000  0.000  0.005  0.006
    8  0.006  0.001  0.005  0.012
    9  0.000  0.000  0.010  0.010
   10  0.007  0.002  0.011  0.020
   11  0.005  0.000  0.044  0.050
   12  0.002  0.001  0.037  0.040
   13  0.005  0.000  0.044  0.050
   14  0.021  0.001  0.009  0.032
   15  0.001  0.001  0.015  0.017
   16  0.002  0.001  0.037  0.040
   17  0.001  0.001  0.015  0.017
   18  0.003  0.000  0.023  0.027
   19  0.001  0.001  0.013  0.015
   20  0.024  0.001  0.007  0.032
   21  0.006  0.000  0.048  0.055
   22  0.001  0.001  0.033  0.035
   23  0.006  0.000  0.048  0.055
   24  0.006  0.001  0.011  0.018
   25  0.005  0.000  0.023  0.028
   26  0.001  0.001  0.013  0.015
   27  0.001  0.001  0.033  0.035
   28  0.000  0.000  0.007  0.008
   29  0.006  0.001  0.004  0.011
   30  0.000  0.000  0.004  0.004
   31  0.006  0.001  0.004  0.011
   32  0.007  0.001  0.004  0.012
   33  0.000  0.000  0.004  0.004
   34  0.007  0.001  0.004  0.012
   35  0.000  0.000  0.003  0.003
   36  0.000  0.002  0.014  0.016
   37  0.000  0.000  0.000  0.000
tot    0.155  0.031  0.564  0.750
 
band    15 # energy   -5.54189042 # occ.  2.00000000
 
ion      s      p      d    tot
    1  0.015  0.002  0.002  0.019
    2  0.000  0.001  0.008  0.009
    3  0.000  0.001  0.008  0.009
    4  0.000  0.001  0.008  0.009
    5  0.000  0.000  0.002  0.002
    6  0.000  0.001  0.008  0.009
    7  0.000  0.001  0.008  0.009
    8  0.000  0.001  0.008  0.009
    9  0.014  0.001  0.000  0.016
   10  0.009  0.002  0.010  0.021
   11  0.004  0.000  0.039  0.043
   12  0.009  0.002  0.010  0.021
   13  0.004  0.000  0.039  0.043
   14  0.004  0.000  0.039  0.043
   15  0.001  0.001  0.029  0.032
   16  0.009  0.002  0.010  0.021
   17  0.001  0.001  0.029  0.032
   18  0.001  0.001  0.029  0.031
   19  0.006  0.001  0.012  0.018
   20  0.001  0.000  0.045  0.045
   21  0.001  0.000  0.044  0.045
   22  0.013  0.001  0.021  0.035
   23  0.001  0.000  0.044  0.045
   24  0.013  0.001  0.021  0.035
   25  0.005  0.001  0.012  0.018
   26  0.006  0.001  0.012  0.018
   27  0.013  0.001  0.021  0.035
   28  0.016  0.001  0.000  0.018
   29  0.000  0.001  0.007  0.007
   30  0.000  0.001  0.007  0.007
   31  0.000  0.001  0.007  0.007
   32  0.000  0.001  0.007  0.007
   33  0.000  0.001  0.007  0.007
   34  0.000  0.001  0.007  0.007
   35  0.007  0.001  0.003  0.011
   36  0.001  0.000  0.003  0.004
   37  0.000  0.000  0.000  0.000
tot    0.155  0.030  0.565  0.749
 
band    16 # energy   -5.53102893 # occ.  2.00000000
 
ion      s      p      d    tot
    1  0.000  0.001  0.014  0.014
    2  0.009  0.001  0.004  0.014
    3  0.001  0.000  0.005  0.006
    4  0.009  0.001  0.004  0.015
    5  0.000  0.000  0.006  0.006
    6  0.005  0.001  0.005  0.011
    7  0.001  0.000  0.005  0.006
    8  0.005  0.001  0.005  0.011
    9  0.000  0.001  0.006  0.007
   10  0.000  0.001  0.034  0.034
   11  0.000  0.001  0.019  0.020
   12  0.009  0.000  0.022  0.032
   13  0.000  0.001  0.019  0.020
   14  0.000  0.001  0.017  0.018
   15  0.011  0.002  0.020  0.033
   16  0.009  0.000  0.022  0.032
   17  0.011  0.002  0.020  0.033
   18  0.000  0.000  0.062  0.062
   19  0.015  0.001  0.020  0.036
   20  0.000  0.002  0.019  0.020
   21  0.000  0.001  0.020  0.021
   22  0.015  0.001  0.021  0.036
   23  0.000  0.001  0.020  0.021
   24  0.000  0.001  0.029  0.030
   25  0.000  0.000  0.066  0.067
   26  0.015  0.001  0.020  0.036
   27  0.015  0.001  0.021  0.036
   28  0.000  0.001  0.005  0.006
   29  0.006  0.001  0.004  0.011
   30  0.000  0.000  0.004  0.005
   31  0.006  0.001  0.004  0.011
   32  0.006  0.001  0.003  0.010
   33  0.000  0.000  0.004  0.005
   34  0.006  0.001  0.003  0.010
   35  0.000  0.001  0.009  0.010
   36  0.000  0.000  0.003  0.003
   37  0.000  0.000  0.000  0.000
tot    0.153  0.030  0.566  0.749
 
band    17 # energy   -5.53101095 # occ.  2.00000000
 
ion      s      p      d    tot
    1  0.000  0.001  0.014  0.014
    2  0.001  0.001  0.005  0.007
    3  0.009  0.001  0.005  0.015
    4  0.001  0.001  0.005  0.007
    5  0.000  0.000  0.006  0.006
    6  0.005  0.001  0.004  0.010
    7  0.009  0.001  0.005  0.015
    8  0.005  0.001  0.004  0.010
    9  0.000  0.001  0.006  0.007
   10  0.012  0.000  0.018  0.031
   11  0.000  0.001  0.018  0.019
   12  0.003  0.001  0.030  0.033
   13  0.000  0.001  0.018  0.019
   14  0.000  0.001  0.020  0.021
   15  0.004  0.001  0.048  0.053
   16  0.003  0.001  0.030  0.034
   17  0.004  0.001  0.048  0.052
   18  0.015  0.002  0.006  0.023
   19  0.005  0.001  0.051  0.056
   20  0.000  0.000  0.021  0.021
   21  0.000  0.001  0.019  0.021
   22  0.005  0.001  0.027  0.032
   23  0.000  0.001  0.019  0.021
   24  0.020  0.001  0.018  0.038
   25  0.020  0.002  0.004  0.026
   26  0.005  0.001  0.051  0.056
   27  0.005  0.001  0.027  0.032
   28  0.000  0.001  0.005  0.006
   29  0.002  0.000  0.003  0.006
   30  0.008  0.001  0.003  0.012
   31  0.002  0.000  0.003  0.006
   32  0.002  0.001  0.005  0.007
   33  0.008  0.001  0.003  0.012
   34  0.002  0.001  0.005  0.007
   35  0.000  0.001  0.009  0.010
   36  0.000  0.000  0.003  0.003
   37  0.000  0.000  0.000  0.000
tot    0.153  0.030  0.566  0.749
 
band    18 # energy   -5.17979347 # occ.  2.00000000
 
ion      s      p      d    tot
    1  0.012  0.000  0.009  0.022
    2  0.000  0.001  0.015  0.016
    3  0.000  0.001  0.015  0.016
    4  0.000  0.001  0.015  0.016
    5  0.001  0.000  0.007  0.008
    6  0.000  0.001  0.015  0.016
    7  0.000  0.001  0.015  0.016
    8  0.000  0.001  0.015  0.016
    9  0.018  0.001  0.000  0.019
   10  0.000  0.000  0.029  0.030
   11  0.000  0.000  0.036  0.036
   12  0.000  0.000  0.029  0.029
   13  0.000  0.000  0.036  0.036
   14  0.000  0.000  0.036  0.036
   15  0.000  0.000  0.027  0.027
   16  0.000  0.000  0.029  0.029
   17  0.000  0.000  0.027  0.027
   18  0.000  0.000  0.027  0.027
   19  0.000  0.000  0.019  0.019
   20  0.001  0.000  0.034  0.035
   21  0.001  0.000  0.034  0.035
   22  0.000  0.000  0.028  0.029
   23  0.001  0.000  0.034  0.035
   24  0.000  0.000  0.028  0.028
   25  0.000  0.000  0.019  0.019
   26  0.000  0.000  0.019  0.019
   27  0.000  0.000  0.028  0.029
   28  0.000  0.000  0.003  0.004
   29  0.000  0.001  0.016  0.017
   30  0.000  0.001  0.016  0.017
   31  0.000  0.001  0.016  0.017
   32  0.000  0.001  0.016  0.017
   33  0.000  0.001  0.016  0.017
   34  0.000  0.001  0.016  0.017
   35  0.017  0.001  0.001  0.020
   36  0.008  0.000  0.025  0.033
   37  0.000  0.002  0.000  0.002
tot    0.062  0.018  0.748  0.827
 
band    19 # energy   -5.16994356 # occ.  2.00000000
 
ion      s      p      d    tot
    1  0.001  0.000  0.002  0.004
    2  0.000  0.001  0.015  0.016
    3  0.000  0.001  0.015  0.016
    4  0.000  0.001  0.015  0.016
    5  0.011  0.000  0.006  0.017
    6  0.000  0.001  0.015  0.016
    7  0.000  0.001  0.015  0.016
    8  0.000  0.001  0.015  0.016
    9  0.007  0.000  0.013  0.020
   10  0.000  0.000  0.022  0.022
   11  0.000  0.000  0.028  0.028
   12  0.000  0.000  0.022  0.022
   13  0.000  0.000  0.028  0.028
   14  0.000  0.000  0.027  0.027
   15  0.000  0.000  0.037  0.038
   16  0.000  0.000  0.022  0.022
   17  0.000  0.000  0.037  0.038
   18  0.000  0.000  0.037  0.038
   19  0.000  0.000  0.030  0.031
   20  0.000  0.000  0.034  0.035
   21  0.000  0.000  0.034  0.035
   22  0.001  0.000  0.029  0.030
   23  0.000  0.000  0.034  0.035
   24  0.001  0.000  0.028  0.029
   25  0.000  0.000  0.030  0.031
   26  0.000  0.000  0.030  0.031
   27  0.001  0.000  0.029  0.030
   28  0.017  0.000  0.005  0.022
   29  0.000  0.001  0.014  0.015
   30  0.000  0.001  0.014  0.015
   31  0.000  0.001  0.014  0.015
   32  0.000  0.001  0.014  0.015
   33  0.000  0.001  0.014  0.015
   34  0.000  0.001  0.014  0.015
   35  0.003  0.000  0.006  0.010
   36  0.013  0.001  0.006  0.019
   37  0.002  0.007  0.000  0.009
tot    0.059  0.020  0.755  0.834
 
band    20 # energy   -5.16468770 # occ.  2.00000000
 
ion      s      p      d    tot
    1  0.000  0.000  0.019  0.020
    2  0.000  0.001  0.013  0.014
    3  0.008  0.000  0.016  0.024
    4  0.000  0.001  0.013  0.014
    5  0.000  0.000  0.032  0.033
    6  0.010  0.001  0.010  0.021
    7  0.008  0.000  0.016  0.024
    8  0.010  0.001  0.010  0.021
    9  0.000  0.002  0.007  0.009
   10  0.000  0.000  0.019  0.019
   11  0.000  0.000  0.042  0.043
   12  0.000  0.000  0.011  0.011
   13  0.000  0.000  0.043  0.043
   14  0.000  0.001  0.040  0.041
   15  0.000  0.000  0.037  0.037
   16  0.000  0.000  0.011  0.011
   17  0.000  0.000  0.037  0.037
   18  0.000  0.000  0.046  0.047
   19  0.000  0.000  0.010  0.010
   20  0.001  0.000  0.045  0.047
   21  0.000  0.000  0.027  0.027
   22  0.000  0.000  0.034  0.034
   23  0.000  0.000  0.027  0.028
   24  0.000  0.000  0.036  0.037
   25  0.000  0.000  0.011  0.012
   26  0.000  0.000  0.009  0.010
   27  0.000  0.000  0.034  0.034
   28  0.000  0.000  0.012  0.012
   29  0.006  0.000  0.011  0.017
   30  0.000  0.000  0.008  0.009
   31  0.006  0.000  0.011  0.017
   32  0.006  0.001  0.007  0.014
   33  0.000  0.000  0.008  0.009
   34  0.006  0.001  0.007  0.014
   35  0.000  0.000  0.020  0.020
   36  0.000  0.002  0.008  0.010
   37  0.000  0.000  0.000  0.000
tot    0.063  0.015  0.749  0.827
 
band    21 # energy   -5.16468316 # occ.  2.00000000
 
ion      s      p      d    tot
    1  0.000  0.000  0.019  0.020
    2  0.012  0.001  0.013  0.025
    3  0.004  0.001  0.010  0.015
    4  0.012  0.001  0.013  0.025
    5  0.000  0.000  0.032  0.033
    6  0.002  0.000  0.016  0.018
    7  0.004  0.001  0.010  0.015
    8  0.002  0.000  0.016  0.018
    9  0.000  0.002  0.007  0.009
   10  0.000  0.000  0.008  0.008
   11  0.000  0.001  0.041  0.041
   12  0.000  0.000  0.017  0.017
   13  0.000  0.001  0.041  0.041
   14  0.000  0.000  0.044  0.044
   15  0.000  0.000  0.043  0.043
   16  0.000  0.000  0.017  0.017
   17  0.000  0.000  0.043  0.043
   18  0.000  0.000  0.034  0.034
   19  0.000  0.000  0.011  0.011
   20  0.000  0.000  0.021  0.021
   21  0.001  0.000  0.039  0.041
   22  0.000  0.000  0.036  0.036
   23  0.001  0.000  0.039  0.040
   24  0.000  0.000  0.033  0.034
   25  0.000  0.000  0.009  0.009
   26  0.000  0.000  0.011  0.011
   27  0.000  0.000  0.036  0.036
   28  0.000  0.000  0.012  0.012
   29  0.002  0.000  0.006  0.009
   30  0.008  0.001  0.009  0.018
   31  0.002  0.000  0.006  0.009
   32  0.002  0.000  0.011  0.013
   33  0.008  0.001  0.009  0.018
   34  0.002  0.000  0.011  0.013
   35  0.000  0.000  0.020  0.020
   36  0.000  0.002  0.008  0.010