PROCAR new format
# of k-points:   10         # of bands:  252         # of ions:   38

 k-point     1 :    0.00000000 0.00000000 0.00000000     weight = 0.01562500

band     1 # energy  -19.52543554 # occ.  2.00000000
 
ion      s      p      d    tot
    1  0.000  0.000  0.000  0.000
    2  0.000  0.000  0.000  0.000
    3  0.000  0.000  0.000  0.000
    4  0.000  0.000  0.000  0.000
    5  0.000  0.000  0.000  0.000
    6  0.000  0.000  0.000  0.000
    7  0.000  0.000  0.000  0.000
    8  0.000  0.000  0.000  0.000
    9  0.000  0.000  0.000  0.000
   10  0.000  0.000  0.000  0.000
   11  0.000  0.000  0.000  0.000
   12  0.000  0.000  0.000  0.000
   13  0.000  0.000  0.000  0.000
   14  0.000  0.000  0.000  0.000
   15  0.000  0.000  0.000  0.000
   16  0.000  0.000  0.000  0.000
   17  0.000  0.000  0.000  0.000
   18  0.000  0.000  0.000  0.000
   19  0.000  0.000  0.000  0.000
   20  0.000  0.000  0.000  0.000
   21  0.000  0.000  0.000  0.000
   22  0.000  0.000  0.000  0.000
   23  0.000  0.000  0.000  0.000
   24  0.000  0.000  0.000  0.000
   25  0.000  0.000  0.000  0.000
   26  0.000  0.000  0.000  0.000
   27  0.000  0.000  0.000  0.000
   28  0.000  0.000  0.000  0.000
   29  0.000  0.000  0.000  0.000
   30  0.000  0.000  0.000  0.000
   31  0.000  0.000  0.000  0.000
   32  0.000  0.000  0.000  0.000
   33  0.000  0.000  0.000  0.000
   34  0.000  0.000  0.000  0.000
   35  0.000  0.000  0.000  0.000
   36  0.015  0.022  0.023  0.059
   37  0.745  0.015  0.000  0.761
   38  0.115  0.024  0.000  0.139
tot    0.875  0.061  0.023  0.959
 
band     2 # energy   -8.07703005 # occ.  2.00000000
 
ion      s      p      d    tot
    1  0.001  0.000  0.000  0.002
    2  0.001  0.000  0.000  0.001
    3  0.001  0.000  0.000  0.001
    4  0.001  0.000  0.000  0.001
    5  0.001  0.000  0.000  0.001
    6  0.001  0.000  0.000  0.001
    7  0.001  0.000  0.000  0.001
    8  0.001  0.000  0.000  0.001
    9  0.001  0.000  0.000  0.001
   10  0.007  0.000  0.000  0.007
   11  0.007  0.000  0.000  0.007
   12  0.007  0.000  0.000  0.007
   13  0.007  0.000  0.000  0.007
   14  0.007  0.000  0.000  0.007
   15  0.006  0.000  0.000  0.006
   16  0.007  0.000  0.000  0.007
   17  0.006  0.000  0.000  0.006
   18  0.006  0.000  0.000  0.006
   19  0.007  0.000  0.000  0.007
   20  0.013  0.000  0.001  0.014
   21  0.013  0.000  0.001  0.014
   22  0.007  0.000  0.000  0.008
   23  0.013  0.000  0.001  0.014
   24  0.007  0.000  0.000  0.008
   25  0.007  0.000  0.000  0.007
   26  0.007  0.000  0.000  0.007
   27  0.007  0.000  0.000  0.008
   28  0.002  0.000  0.000  0.002
   29  0.004  0.000  0.000  0.004
   30  0.004  0.000  0.000  0.004
   31  0.004  0.000  0.000  0.004
   32  0.004  0.000  0.000  0.004
   33  0.004  0.000  0.000  0.004
   34  0.004  0.000  0.000  0.004
   35  0.002  0.000  0.000  0.002
   36  0.066  0.030  0.089  0.185
   37  0.016  0.364  0.000  0.380
   38  0.121  0.013  0.000  0.134
tot    0.381  0.411  0.094  0.887
 
band     3 # energy   -7.83490680 # occ.  2.00000000
 
ion      s      p      d    tot
    1  0.006  0.000  0.000  0.006
    2  0.006  0.000  0.000  0.006
    3  0.006  0.000  0.000  0.006
    4  0.006  0.000  0.000  0.006
    5  0.006  0.000  0.000  0.006
    6  0.006  0.000  0.000  0.006
    7  0.006  0.000  0.000  0.006
    8  0.006  0.000  0.000  0.006
    9  0.006  0.000  0.000  0.006
   10  0.020  0.000  0.000  0.021
   11  0.021  0.000  0.000  0.021
   12  0.020  0.000  0.000  0.021
   13  0.021  0.000  0.000  0.021
   14  0.021  0.000  0.000  0.021
   15  0.021  0.000  0.000  0.022
   16  0.020  0.000  0.000  0.021
   17  0.021  0.000  0.000  0.022
   18  0.021  0.000  0.000  0.022
   19  0.016  0.000  0.000  0.016
   20  0.014  0.000  0.000  0.015
   21  0.014  0.000  0.000  0.015
   22  0.017  0.000  0.000  0.017
   23  0.014  0.000  0.000  0.015
   24  0.017  0.000  0.000  0.017
   25  0.016  0.000  0.000  0.016
   26  0.016  0.000  0.000  0.016
   27  0.017  0.000  0.000  0.017
   28  0.002  0.000  0.000  0.003
   29  0.002  0.000  0.000  0.002
   30  0.002  0.000  0.000  0.002
   31  0.002  0.000  0.000  0.002
   32  0.002  0.000  0.000  0.002
   33  0.002  0.000  0.000  0.002
   34  0.002  0.000  0.000  0.002
   35  0.003  0.000  0.000  0.003
   36  0.010  0.025  0.042  0.077
   37  0.009  0.163  0.000  0.173
   38  0.053  0.006  0.000  0.059
tot    0.466  0.203  0.048  0.717
 
band     4 # energy   -6.69552611 # occ.  2.00000000
 
ion      s      p      d    tot
    1  0.017  0.000  0.001  0.019
    2  0.017  0.000  0.001  0.018
    3  0.017  0.000  0.001  0.018
    4  0.017  0.000  0.001  0.018
    5  0.016  0.000  0.001  0.018
    6  0.017  0.000  0.001  0.018
    7  0.017  0.000  0.001  0.018
    8  0.017  0.000  0.001  0.018
    9  0.017  0.000  0.001  0.018
   10  0.010  0.002  0.002  0.014
   11  0.009  0.002  0.003  0.013
   12  0.010  0.002  0.002  0.014
   13  0.009  0.002  0.003  0.013
   14  0.009  0.002  0.003  0.013
   15  0.009  0.002  0.003  0.013
   16  0.010  0.002  0.002  0.014
   17  0.009  0.002  0.003  0.013
   18  0.009  0.002  0.003  0.013
   19  0.015  0.001  0.004  0.020
   20  0.016  0.001  0.004  0.021
   21  0.016  0.001  0.004  0.021
   22  0.016  0.001  0.004  0.021
   23  0.016  0.001  0.004  0.021
   24  0.016  0.001  0.004  0.021
   25  0.015  0.001  0.004  0.020
   26  0.015  0.001  0.004  0.020
   27  0.016  0.001  0.004  0.021
   28  0.013  0.001  0.000  0.014
   29  0.012  0.001  0.000  0.014
   30  0.012  0.001  0.000  0.014
   31  0.012  0.001  0.000  0.014
   32  0.012  0.001  0.000  0.014
   33  0.012  0.001  0.000  0.014
   34  0.012  0.001  0.000  0.014
   35  0.013  0.001  0.000  0.014
   36  0.003  0.004  0.005  0.012
   37  0.001  0.008  0.000  0.009
   38  0.002  0.000  0.000  0.003
tot    0.484  0.044  0.079  0.606
 
band     5 # energy   -5.78678984 # occ.  2.00000000
 
ion      s      p      d    tot
    1  0.002  0.001  0.015  0.017
    2  0.009  0.000  0.011  0.020
    3  0.009  0.000  0.011  0.020
    4  0.009  0.000  0.011  0.020
    5  0.003  0.000  0.007  0.011
    6  0.009  0.000  0.011  0.020
    7  0.009  0.000  0.011  0.020
    8  0.009  0.000  0.011  0.020
    9  0.033  0.001  0.004  0.038
   10  0.013  0.001  0.021  0.035
   11  0.017  0.002  0.012  0.031
   12  0.013  0.001  0.021  0.035
   13  0.017  0.002  0.012  0.031
   14  0.016  0.002  0.012  0.031
   15  0.006  0.001  0.019  0.027
   16  0.013  0.001  0.021  0.035
   17  0.006  0.001  0.019  0.027
   18  0.006  0.001  0.019  0.027
   19  0.000  0.001  0.014  0.015
   20  0.016  0.002  0.013  0.031
   21  0.016  0.002  0.013  0.031
   22  0.011  0.002  0.003  0.015
   23  0.016  0.002  0.013  0.031
   24  0.011  0.002  0.003  0.015
   25  0.000  0.001  0.014  0.015
   26  0.000  0.001  0.014  0.015
   27  0.011  0.002  0.003  0.015
   28  0.004  0.000  0.000  0.004
   29  0.002  0.000  0.004  0.006
   30  0.002  0.000  0.004  0.006
   31  0.002  0.000  0.004  0.006
   32  0.002  0.000  0.004  0.006
   33  0.002  0.000  0.004  0.006
   34  0.002  0.000  0.004  0.006
   35  0.009  0.001  0.000  0.010
   36  0.001  0.003  0.000  0.005
   37  0.000  0.001  0.000  0.001
   38  0.000  0.000  0.000  0.000
tot    0.306  0.034  0.360  0.701
 
band     6 # energy   -5.76794588 # occ.  2.00000000
 
ion      s      p      d    tot
    1  0.000  0.000  0.007  0.007
    2  0.004  0.001  0.004  0.009
    3  0.005  0.001  0.003  0.008
    4  0.006  0.001  0.004  0.010
    5  0.000  0.001  0.008  0.009
    6  0.000  0.000  0.003  0.003
    7  0.006  0.001  0.003  0.010
    8  0.000  0.000  0.003  0.003
    9  0.000  0.000  0.001  0.002
   10  0.000  0.000  0.031  0.032
   11  0.037  0.002  0.017  0.055
   12  0.021  0.002  0.009  0.032
   13  0.048  0.001  0.012  0.062
   14  0.001  0.003  0.031  0.034
   15  0.004  0.002  0.010  0.016
   16  0.016  0.001  0.015  0.032
   17  0.005  0.001  0.012  0.018
   18  0.000  0.004  0.002  0.006
   19  0.002  0.001  0.009  0.013
   20  0.001  0.003  0.029  0.033
   21  0.049  0.001  0.014  0.064
   22  0.022  0.002  0.008  0.032
   23  0.037  0.002  0.018  0.057
   24  0.000  0.000  0.033  0.034
   25  0.000  0.004  0.003  0.007
   26  0.003  0.001  0.011  0.015
   27  0.017  0.001  0.014  0.033
   28  0.000  0.000  0.001  0.001
   29  0.000  0.000  0.002  0.003
   30  0.007  0.001  0.003  0.011
   31  0.001  0.000  0.002  0.003
   32  0.005  0.001  0.004  0.010
   33  0.006  0.001  0.003  0.009
   34  0.003  0.001  0.004  0.008
   35  0.000  0.000  0.005  0.006
   36  0.000  0.003  0.003  0.005
   37  0.000  0.000  0.000  0.000
   38  0.000  0.000  0.000  0.000
tot    0.308  0.044  0.342  0.694
 
band     7 # energy   -5.76794445 # occ.  2.00000000
 
ion      s      p      d    tot
    1  0.000  0.000  0.007  0.007
    2  0.003  0.001  0.003  0.006
    3  0.002  0.001  0.003  0.006
    4  0.001  0.000  0.003  0.004
    5  0.000  0.001  0.008  0.009
    6  0.007  0.001  0.003  0.012
    7  0.001  0.000  0.003  0.005
    8  0.007  0.001  0.003  0.011
    9  0.000  0.000  0.001  0.002
   10  0.024  0.002  0.006  0.032
   11  0.020  0.002  0.023  0.046
   12  0.004  0.000  0.028  0.032
   13  0.009  0.002  0.028  0.039
   14  0.056  0.001  0.009  0.067
   15  0.002  0.003  0.007  0.011
   16  0.009  0.001  0.022  0.032
   17  0.001  0.003  0.004  0.009
   18  0.006  0.000  0.014  0.021
   19  0.001  0.002  0.006  0.010
   20  0.057  0.001  0.011  0.070
   21  0.009  0.003  0.027  0.039
   22  0.004  0.000  0.029  0.033
   23  0.021  0.002  0.023  0.046
   24  0.026  0.002  0.004  0.032
   25  0.004  0.000  0.013  0.017
   26  0.001  0.003  0.004  0.008
   27  0.010  0.001  0.023  0.033
   28  0.000  0.000  0.001  0.001
   29  0.007  0.001  0.003  0.012
   30  0.000  0.000  0.003  0.004
   31  0.007  0.001  0.004  0.012
   32  0.002  0.000  0.002  0.005
   33  0.002  0.001  0.003  0.005
   34  0.004  0.001  0.002  0.007
   35  0.000  0.000  0.005  0.006
   36  0.000  0.003  0.003  0.005
   37  0.000  0.000  0.000  0.000
   38  0.000  0.000  0.000  0.000
tot    0.308  0.044  0.342  0.694
 
band     8 # energy   -5.76621536 # occ.  2.00000000
 
ion      s      p      d    tot
    1  0.027  0.000  0.008  0.034
    2  0.012  0.000  0.014  0.027
    3  0.012  0.000  0.014  0.027
    4  0.012  0.000  0.014  0.027
    5  0.015  0.000  0.014  0.029
    6  0.012  0.000  0.014  0.027
    7  0.012  0.000  0.014  0.027
    8  0.012  0.000  0.014  0.027
    9  0.002  0.001  0.017  0.020
   10  0.000  0.000  0.033  0.033
   11  0.001  0.001  0.023  0.025
   12  0.000  0.000  0.033  0.033
   13  0.001  0.001  0.023  0.025
   14  0.001  0.001  0.023  0.025
   15  0.031  0.002  0.013  0.045
   16  0.000  0.000  0.033  0.033
   17  0.031  0.002  0.013  0.045
   18  0.031  0.002  0.013  0.045
   19  0.001  0.001  0.012  0.014
   20  0.012  0.000  0.011  0.023
   21  0.012  0.000  0.011  0.023
   22  0.005  0.002  0.007  0.014
   23  0.012  0.000  0.011  0.023
   24  0.005  0.002  0.007  0.014
   25  0.001  0.001  0.012  0.013
   26  0.001  0.001  0.012  0.014
   27  0.005  0.002  0.007  0.014
   28  0.000  0.000  0.000  0.000
   29  0.000  0.000  0.002  0.002
   30  0.000  0.000  0.002  0.002
   31  0.000  0.000  0.002  0.002
   32  0.000  0.000  0.002  0.002
   33  0.000  0.000  0.002  0.002
   34  0.000  0.000  0.002  0.002
   35  0.002  0.000  0.000  0.002
   36  0.002  0.003  0.000  0.005
   37  0.000  0.001  0.000  0.002
   38  0.000  0.000  0.000  0.001
tot    0.272  0.023  0.430  0.726
 
band     9 # energy   -5.73987827 # occ.  2.00000000
 
ion      s      p      d    tot
    1  0.007  0.001  0.001  0.009
    2  0.000  0.001  0.006  0.007
    3  0.000  0.001  0.006  0.007
    4  0.000  0.001  0.006  0.007
    5  0.018  0.002  0.001  0.020
    6  0.000  0.001  0.006  0.007
    7  0.000  0.001  0.006  0.007
    8  0.000  0.001  0.006  0.007
    9  0.000  0.000  0.002  0.002
   10  0.025  0.003  0.002  0.030
   11  0.021  0.001  0.022  0.044
   12  0.025  0.003  0.002  0.030
   13  0.021  0.001  0.022  0.044
   14  0.021  0.001  0.022  0.044
   15  0.000  0.001  0.024  0.025
   16  0.025  0.003  0.002  0.030
   17  0.000  0.001  0.024  0.025
   18  0.000  0.001  0.024  0.025
   19  0.026  0.002  0.005  0.034
   20  0.005  0.002  0.017  0.025
   21  0.005  0.002  0.017  0.025
   22  0.008  0.000  0.027  0.034
   23  0.005  0.002  0.017  0.025
   24  0.008  0.000  0.027  0.034
   25  0.026  0.002  0.005  0.034
   26  0.026  0.002  0.005  0.034
   27  0.008  0.000  0.027  0.034
   28  0.010  0.001  0.001  0.013
   29  0.000  0.000  0.004  0.004
   30  0.000  0.000  0.004  0.004
   31  0.000  0.000  0.004  0.004
   32  0.000  0.000  0.004  0.004
   33  0.000  0.000  0.004  0.004
   34  0.000  0.000  0.004  0.004
   35  0.004  0.001  0.002  0.007
   36  0.000  0.000  0.000  0.001
   37  0.000  0.000  0.000  0.000
   38  0.000  0.000  0.000  0.000
tot    0.299  0.040  0.356  0.695
 
band    10 # energy   -5.71607758 # occ.  2.00000000
 
ion      s      p      d    tot
    1  0.000  0.001  0.005  0.006
    2  0.006  0.001  0.004  0.011
    3  0.007  0.001  0.004  0.011
    4  0.006  0.001  0.004  0.012
    5  0.000  0.000  0.003  0.003
    6  0.000  0.000  0.003  0.004
    7  0.007  0.001  0.004  0.012
    8  0.000  0.000  0.003  0.004
    9  0.000  0.001  0.011  0.012
   10  0.038  0.000  0.015  0.054
   11  0.001  0.002  0.015  0.017
   12  0.008  0.004  0.010  0.022
   13  0.000  0.002  0.015  0.018
   14  0.002  0.001  0.011  0.014
   15  0.016  0.001  0.035  0.052
   16  0.011  0.003  0.011  0.025
   17  0.013  0.001  0.038  0.051
   18  0.058  0.002  0.004  0.064
   19  0.013  0.001  0.027  0.040
   20  0.004  0.001  0.010  0.015
   21  0.001  0.001  0.016  0.018
   22  0.006  0.003  0.011  0.020
   23  0.001  0.001  0.015  0.017
   24  0.026  0.000  0.014  0.040
   25  0.046  0.002  0.004  0.051
   26  0.010  0.001  0.028  0.039
   27  0.007  0.003  0.012  0.022
   28  0.000  0.001  0.006  0.007
   29  0.000  0.000  0.002  0.002
   30  0.003  0.001  0.002  0.005
   31  0.000  0.000  0.002  0.002
   32  0.003  0.001  0.003  0.007
   33  0.003  0.001  0.002  0.005
   34  0.003  0.001  0.003  0.007
   35  0.000  0.001  0.003  0.003
   36  0.000  0.000  0.001  0.001
   37  0.000  0.000  0.000  0.000
   38  0.000  0.000  0.000  0.000
tot    0.299  0.042  0.353  0.694
 
band    11 # energy   -5.71606888 # occ.  2.00000000
 
ion      s      p      d    tot
    1  0.000  0.001  0.005  0.006
    2  0.003  0.001  0.003  0.007
    3  0.002  0.001  0.004  0.006
    4  0.002  0.001  0.003  0.006
    5  0.000  0.000  0.003  0.003
    6  0.008  0.001  0.004  0.014
    7  0.002  0.001  0.004  0.006
    8  0.009  0.001  0.004  0.014
    9  0.000  0.001  0.011  0.012
   10  0.000  0.004  0.009  0.013
   11  0.001  0.001  0.012  0.015
   12  0.030  0.001  0.014  0.045
   13  0.002  0.001  0.012  0.015
   14  0.000  0.002  0.016  0.019
   15  0.042  0.001  0.016  0.059
   16  0.027  0.001  0.014  0.042
   17  0.045  0.002  0.013  0.060
   18  0.000  0.000  0.047  0.047
   19  0.033  0.002  0.013  0.047
   20  0.000  0.001  0.017  0.018
   21  0.003  0.001  0.012  0.016
   22  0.021  0.001  0.013  0.035
   23  0.003  0.001  0.012  0.016
   24  0.000  0.004  0.011  0.015
   25  0.000  0.001  0.035  0.036
   26  0.036  0.002  0.011  0.048
   27  0.019  0.001  0.013  0.033
   28  0.000  0.001  0.006  0.007
   29  0.004  0.001  0.002  0.007
   30  0.001  0.000  0.002  0.004
   31  0.004  0.001  0.002  0.007
   32  0.001  0.000  0.001  0.003
   33  0.001  0.000  0.003  0.004
   34  0.001  0.000  0.001  0.003
   35  0.000  0.001  0.003  0.003
   36  0.000  0.000  0.001  0.001
   37  0.000  0.000  0.000  0.000
   38  0.000  0.000  0.000  0.000
tot    0.299  0.042  0.353  0.694
 
band    12 # energy   -5.61421500 # occ.  2.00000000
 
ion      s      p      d    tot
    1  0.001  0.000  0.000  0.001
    2  0.001  0.000  0.001  0.001
    3  0.001  0.000  0.001  0.001
    4  0.001  0.000  0.001  0.001
    5  0.002  0.000  0.000  0.002
    6  0.001  0.000  0.001  0.001
    7  0.001  0.000  0.001  0.001
    8  0.001  0.000  0.001  0.001
    9  0.000  0.000  0.001  0.001
   10  0.000  0.000  0.004  0.004
   11  0.001  0.000  0.002  0.003
   12  0.000  0.000  0.004  0.004
   13  0.001  0.000  0.002  0.003
   14  0.001  0.000  0.002  0.003
   15  0.002  0.000  0.003  0.006
   16  0.000  0.000  0.004  0.004
   17  0.002  0.000  0.003  0.006
   18  0.002  0.000  0.003  0.006
   19  0.004  0.001  0.018  0.023
   20  0.003  0.000  0.030  0.033
   21  0.003  0.000  0.030  0.033
   22  0.009  0.001  0.023  0.033
   23  0.003  0.000  0.030  0.033
   24  0.009  0.001  0.023  0.033
   25  0.004  0.001  0.018  0.023
   26  0.004  0.001  0.018  0.023
   27  0.009  0.001  0.023  0.033
   28  0.028  0.000  0.020  0.048
   29  0.026  0.000  0.021  0.047
   30  0.026  0.000  0.021  0.047
   31  0.026  0.000  0.021  0.047
   32  0.026  0.000  0.021  0.047
   33  0.026  0.000  0.021  0.047
   34  0.026  0.000  0.021  0.047
   35  0.027  0.000  0.022  0.049
   36  0.007  0.000  0.014  0.021
   37  0.001  0.001  0.000  0.002
   38  0.000  0.000  0.000  0.000
tot    0.280  0.014  0.427  0.720
 
band    13 # energy   -5.29112776 # occ.  2.00000000
 
ion      s      p      d    tot
    1  0.016  0.002  0.002  0.020
    2  0.000  0.001  0.008  0.009
    3  0.000  0.001  0.008  0.009
    4  0.000  0.001  0.008  0.009
    5  0.000  0.000  0.002  0.002
    6  0.000  0.001  0.008  0.009
    7  0.000  0.001  0.008  0.009
    8  0.000  0.001  0.008  0.009
    9  0.016  0.001  0.000  0.017
   10  0.010  0.002  0.013  0.024
   11  0.003  0.000  0.042  0.045
   12  0.010  0.002  0.013  0.024
   13  0.003  0.000  0.042  0.045
   14  0.003  0.000  0.042  0.045
   15  0.003  0.001  0.025  0.029
   16  0.010  0.002  0.013  0.024
   17  0.003  0.001  0.025  0.029
   18  0.003  0.001  0.025  0.029
   19  0.005  0.001  0.010  0.017
   20  0.001  0.000  0.051  0.052
   21  0.001  0.000  0.051  0.052
   22  0.010  0.001  0.022  0.033
   23  0.001  0.000  0.051  0.052
   24  0.010  0.001  0.022  0.033
   25  0.005  0.001  0.010  0.017
   26  0.005  0.001  0.010  0.017
   27  0.010  0.001  0.022  0.033
   28  0.010  0.001  0.001  0.012
   29  0.000  0.000  0.005  0.006
   30  0.000  0.000  0.005  0.006
   31  0.000  0.000  0.005  0.006
   32  0.000  0.000  0.005  0.006
   33  0.000  0.000  0.005  0.006
   34  0.000  0.000  0.005  0.006
   35  0.007  0.001  0.002  0.010
   36  0.001  0.000  0.001  0.002
   37  0.000  0.000  0.000  0.000
   38  0.000  0.000  0.000  0.000
tot    0.147  0.027  0.582  0.756
 
band    14 # energy   -5.28238528 # occ.  2.00000000
 
ion      s      p      d    tot
    1  0.000  0.001  0.004  0.005
    2  0.001  0.001  0.005  0.006
    3  0.009  0.001  0.004  0.015
    4  0.001  0.001  0.005  0.006
    5  0.000  0.001  0.011  0.012
    6  0.005  0.001  0.004  0.009
    7  0.009  0.001  0.004  0.015
    8  0.005  0.001  0.004  0.009
    9  0.000  0.000  0.009  0.009
   10  0.000  0.001  0.050  0.051
   11  0.017  0.001  0.020  0.038
   12  0.007  0.002  0.019  0.027
   13  0.017  0.001  0.020  0.038
   14  0.000  0.000  0.050  0.050
   15  0.002  0.000  0.020  0.022
   16  0.007  0.002  0.019  0.027
   17  0.002  0.000  0.020  0.022
   18  0.000  0.001  0.010  0.012
   19  0.006  0.000  0.018  0.024
   20  0.000  0.000  0.074  0.074
   21  0.017  0.001  0.023  0.041
   22  0.003  0.001  0.019  0.023
   23  0.017  0.001  0.023  0.041
   24  0.000  0.001  0.032  0.033
   25  0.000  0.001  0.012  0.013
   26  0.006  0.000  0.018  0.024
   27  0.003  0.001  0.019  0.023
   28  0.000  0.000  0.008  0.008
   29  0.002  0.001  0.004  0.007
   30  0.011  0.001  0.004  0.016
   31  0.002  0.001  0.004  0.007
   32  0.003  0.001  0.004  0.008
   33  0.011  0.001  0.004  0.016
   34  0.003  0.001  0.004  0.008
   35  0.000  0.000  0.003  0.003
   36  0.000  0.003  0.002  0.006
   37  0.000  0.000  0.000  0.000
   38  0.000  0.000  0.000  0.000
tot    0.161  0.033  0.552  0.747
 
band    15 # energy   -5.28237519 # occ.  2.00000000
 
ion      s      p      d    tot
    1  0.000  0.001  0.004  0.005
    2  0.009  0.001  0.004  0.014
    3  0.001  0.000  0.004  0.005
    4  0.009  0.001  0.004  0.014
    5  0.000  0.001  0.011  0.012
    6  0.005  0.001  0.005  0.011
    7  0.001  0.000  0.004  0.005
    8  0.005  0.001  0.005  0.011
    9  0.000  0.000  0.009  0.009
   10  0.009  0.002  0.008  0.019
   11  0.006  0.000  0.040  0.046
   12  0.002  0.001  0.040  0.043
   13  0.006  0.000  0.040  0.046
   14  0.022  0.001  0.010  0.034
   15  0.001  0.001  0.014  0.015
   16  0.002  0.001  0.040  0.043
   17  0.001  0.001  0.014  0.015
   18  0.002  0.000  0.023  0.025
   19  0.002  0.001  0.014  0.017
   20  0.022  0.002  0.006  0.029
   21  0.006  0.000  0.057  0.063
   22  0.001  0.001  0.028  0.030
   23  0.005  0.000  0.057  0.063
   24  0.003  0.001  0.014  0.019
   25  0.007  0.000  0.020  0.027
   26  0.002  0.001  0.014  0.017
   27  0.001  0.001  0.028  0.030
   28  0.000  0.000  0.008  0.008
   29  0.008  0.001  0.004  0.013
   30  0.000  0.000  0.004  0.005
   31  0.008  0.001  0.004  0.013
   32  0.008  0.001  0.004  0.013
   33  0.000  0.000  0.004  0.005
   34  0.008  0.001  0.004  0.013
   35  0.000  0.000  0.003  0.003
   36  0.000  0.003  0.002  0.006
   37  0.000  0.000  0.000  0.000
   38  0.000  0.000  0.000  0.000
tot    0.161  0.033  0.552  0.747
 
band    16 # energy   -5.23634878 # occ.  2.00000000
 
ion      s      p      d    tot
    1  0.007  0.000  0.001  0.008
    2  0.000  0.001  0.009  0.009
    3  0.000  0.001  0.009  0.009
    4  0.000  0.001  0.009  0.009
    5  0.018  0.002  0.001  0.021
    6  0.000  0.001  0.009  0.009
    7  0.000  0.001  0.009  0.009
    8  0.000  0.001  0.009  0.009
    9  0.004  0.001  0.002  0.006
   10  0.000  0.000  0.043  0.043
   11  0.006  0.001  0.012  0.020
   12  0.000  0.000  0.043  0.044
   13  0.006  0.001  0.012  0.020
   14  0.006  0.001  0.012  0.020
   15  0.007  0.001  0.024  0.033
   16  0.000  0.000  0.043  0.044
   17  0.007  0.001  0.024  0.033
   18  0.007  0.001  0.024  0.033
   19  0.009  0.000  0.042  0.051
   20  0.010  0.002  0.009  0.021
   21  0.010  0.002  0.009  0.021
   22  0.001  0.000  0.034  0.035
   23  0.010  0.002  0.009  0.021
   24  0.001  0.000  0.034  0.035
   25  0.009  0.000  0.042  0.052
   26  0.009  0.000  0.042  0.051
   27  0.001  0.000  0.034  0.035
   28  0.000  0.001  0.006  0.006
   29  0.000  0.000  0.005  0.006
   30  0.000  0.000  0.005  0.006
   31  0.000  0.000  0.005  0.006
   32  0.000  0.000  0.005  0.006
   33  0.000  0.000  0.005  0.006
   34  0.000  0.000  0.005  0.006
   35  0.002  0.000  0.000  0.003
   36  0.008  0.006  0.000  0.014
   37  0.000  0.002  0.000  0.002
   38  0.001  0.000  0.000  0.001
tot    0.143  0.034  0.587  0.764
 
band    17 # energy   -5.22179702 # occ.  2.00000000
 
ion      s      p      d    tot
    1  0.000  0.001  0.015  0.016
    2  0.004  0.001  0.005  0.010
    3  0.003  0.001  0.005  0.010
    4  0.002  0.000  0.005  0.007
    5  0.000  0.000  0.005  0.005
    6  0.002  0.000  0.005  0.007
    7  0.010  0.001  0.005  0.016
    8  0.010  0.001  0.005  0.016
    9  0.000  0.001  0.007  0.008
   10  0.007  0.000  0.023  0.030
   11  0.000  0.001  0.019  0.020
   12  0.007  0.000  0.022  0.030
   13  0.001  0.001  0.020  0.022
   14  0.001  0.001  0.020  0.022
   15  0.000  0.000  0.065  0.065
   16  0.000  0.001  0.030  0.031
   17  0.011  0.002  0.020  0.033
   18  0.011  0.002  0.021  0.034
   19  0.000  0.000  0.066  0.067
   20  0.000  0.001  0.023  0.023
   21  0.000  0.001  0.023  0.023
   22  0.018  0.001  0.020  0.039
   23  0.000  0.002  0.021  0.022
   24  0.018  0.001  0.021  0.039
   25  0.013  0.001  0.020  0.034
   26  0.014  0.001  0.019  0.034
   27  0.000  0.001  0.032  0.033
   28  0.000  0.001  0.005  0.005
   29  0.003  0.001  0.002  0.006
   30  0.003  0.001  0.002  0.006
   31  0.000  0.000  0.004  0.005
   32  0.000  0.000  0.004  0.005
   33  0.005  0.001  0.004  0.010
   34  0.005  0.001  0.004  0.010
   35  0.000  0.001  0.007  0.008
   36  0.000  0.000  0.001  0.001
   37  0.000  0.000  0.000  0.000
   38  0.000  0.000  0.000  0.000
tot    0.148  0.028  0.576  0.752
 
band    18 # energy   -5.22179690 # occ.  2.00000000
 
ion      s      p      d    tot
    1  0.000  0.001  0.015  0.016
    2  0.007  0.001  0.005  0.012
    3  0.007  0.001  0.005  0.012
    4  0.008  0.001  0.005  0.015
    5  0.000  0.000  0.005  0.005
    6  0.008  0.001  0.005  0.015
    7  0.000  0.000  0.006  0.006
    8  0.000  0.000  0.006  0.006
    9  0.000  0.001  0.007  0.008
   10  0.002  0.001  0.028  0.031
   11  0.001  0.001  0.020  0.022
   12  0.002  0.001  0.028  0.031
   13  0.000  0.001  0.019  0.020
   14  0.000  0.001  0.019  0.020
   15  0.014  0.002  0.006  0.023
   16  0.009  0.000  0.020  0.030
   17  0.003  0.001  0.050  0.055
   18  0.004  0.001  0.050  0.054
   19  0.018  0.001  0.004  0.023
   20  0.000  0.001  0.021  0.023
   21  0.000  0.001  0.021  0.023
   22  0.006  0.001  0.028  0.035
   23  0.000  0.000  0.023  0.024
   24  0.006  0.001  0.028  0.035
   25  0.005  0.001  0.050  0.055
   26  0.004  0.001  0.051  0.056
   27  0.024  0.001  0.017  0.041
   28  0.000  0.001  0.005  0.005
   29  0.002  0.001  0.005  0.008
   30  0.002  0.001  0.005  0.008
   31  0.006  0.001  0.003  0.009
   32  0.006  0.001  0.003  0.009
   33  0.001  0.000  0.003  0.004
   34  0.001  0.000  0.003  0.004
   35  0.000  0.001  0.007  0.008
   36  0.000  0.000  0.001  0.001
   37  0.000  0.000  0.000  0.000
   38  0.000  0.000  0.000  0.000
tot    0.148  0.028  0.576  0.752
 
band    19 # energy   -4.90294231 # occ.  2.00000000
 
ion      s      p      d    tot
    1  0.000  0.000  0.015  0.015
    2  0.000  0.000  0.010  0.010
    3  0.006  0.000  0.014  0.020
    4  0.000  0.000  0.011  0.011
    5  0.000  0.000  0.027  0.027
    6  0.008  0.001  0.009  0.017
    7  0.005  0.000  0.014  0.019
    8  0.006  0.001  0.008  0.015
    9  0.000  0.001  0.006  0.007
   10  0.000  0.000  0.016  0.017
   11  0.000  0.000  0.046  0.047
   12  0.000  0.000  0.009  0.009
   13  0.000  0.000  0.047  0.047
   14  0.000  0.000  0.044  0.044
   15  0.000  0.000  0.027  0.027
   16  0.000  0.000  0.011  0.011
   17  0.000  0.000  0.022  0.022
   18  0.000  0.000  0.041  0.042
   19  0.000  0.000  0.011  0.011
   20  0.001  0.000  0.058  0.059
   21  0.000  0.000  0.039  0.040
   22  0.000  0.000  0.035  0.036
   23  0.000  0.000  0.044  0.045
   24  0.000  0.000  0.032  0.032
   25  0.000  0.000  0.012  0.013
   26  0.000  0.000  0.011  0.011
   27  0.000  0.000  0.034  0.035
   28  0.000  0.000  0.012  0.013
   29  0.010  0.001  0.013  0.023
   30  0.000  0.001  0.009  0.009
   31  0.008  0.001  0.013  0.022
   32  0.008  0.001  0.006  0.015
   33  0.000  0.001  0.010  0.011
   34  0.011  0.001  0.007  0.018
   35  0.000  0.000  0.019  0.019
   36  0.000  0.004  0.001  0.005
   37  0.000  0.002  0.000  0.002
   38  0.000  0.000  0.000  0.000
tot    0.066  0.019  0.742  0.826
 
band    20 # energy   -4.90294200 # occ.  2.00000000
 
ion      s      p      d    tot
    1  0.000  0.000  0.015  0.015
    2  0.008  0.000  0.012  0.021
    3  0.002  0.001  0.008  0.011
    4  0.008  0.000  0.011  0.020
    5  0.000  0.000  0.027  0.027
    6  0.001  0.000  0.013  0.014
    7  0.004  0.001  0.008  0.012
    8  0.002  0.000  0.014  0.016
    9  0.000  0.001  0.006  0.007
   10  0.000  0.000  0.008  0.008
   11  0.000  0.000  0.045  0.046
   12  0.000  0.000  0.015  0.015
   13  0.000  0.000  0.044  0.045
   14  0.000  0.000  0.047  0.048
   15  0.000  0.000  0.033  0.033
   16  0.000  0.000  0.013  0.014
   17  0.000  0.000  0.038  0.038
   18  0.000  0.000  0.019  0.019
   19  0.000  0.000  0.012  0.012
   20  0.000  0.000  0.036  0.036
   21  0.001  0.000  0.055  0.056
   22  0.000  0.000  0.032  0.033
   23  0.001  0.000  0.050  0.051
   24  0.000  0.000  0.036  0.036
   25  0.000  0.000  0.010  0.010
   26  0.000  0.000  0.012  0.013
   27  0.000  0.000  0.033  0.034
   28  0.000  0.000  0.012  0.013
   29  0.002  0.001  0.007  0.009
   30  0.012  0.001  0.011  0.023
   31  0.005  0.001  0.006  0.011
   32  0.004  0.001  0.013  0.018
   33  0.012  0.001  0.009  0.022
   34  0.002  0.001  0.012  0.015
   35  0.000  0.000  0.019  0.019
   36  0.000  0.004  0.001  0.005
   37  0.000  0.002  0.000  0.002
   38  0.000  0.000  0.000  0.000
tot    0.066  0.019  0.742  0.826
 
band    21 # energy   -4.88373405 # occ.  2.00000000
 
ion      s      p      d    tot
    1  0.011  0.000  0.008  0.019
    2  0.000  0.001  0.012  0.013
    3  0.000  0.001  0.012  0.013
    4  0.000  0.001  0.012  0.013
    5  0.001  0.001  0.010  0.012
    6  0.000  0.001  0.012  0.013
    7  0.000  0.001  0.012  0.013
    8  0.000  0.001  0.012  0.013
    9  0.017  0.001  0.000  0.018
   10  0.000  0.000  0.030  0.030
   11  0.000  0.000  0.050  0.050
   12  0.000  0.000  0.030  0.030
   13  0.000  0.000  0.050  0.050
   14  0.000  0.000  0.050  0.050
   15  0.000  0.001  0.031  0.032
   16  0.000  0.000  0.030  0.030