 vasp.6.2.0 18Jan21 (build Jun 12 2021 23:27:24) complex                        
  
 executed on             LinuxIFC date 2022.05.28  01:05:10
 running on   28 total cores
 distrk:  each k-point on   28 cores,    1 groups
 distr:  one band on NCORE=   1 cores,   28 groups


--------------------------------------------------------------------------------------------------------


 INCAR:
   ISMEAR = -5
   SIGMA = 0.1
   ISPIN = 1
   EDIFF = 1.d-5
   EDIFFG = -0.01
   NSW = 0
   NELM = 150
   ENCUT = 500
   ISIF = 2
   IBRION = 2
   LREAL = Auto
   ALGO = Fast
   ICHARG = 11
   LORBIT = 10
   LCHARG = .F.
   LWAVE = .F.

 POTCAR:    PAW_PBE Au 04Oct2007                  
 POTCAR:    PAW_PBE Hf 20Jan2003                  
 POTCAR:    PAW_PBE C 08Apr2002                   
 POTCAR:    PAW_PBE O 08Apr2002                   
 -----------------------------------------------------------------------------
|                                                                             |
|           W    W    AA    RRRRR   N    N  II  N    N   GGGG   !!!           |
|           W    W   A  A   R    R  NN   N  II  NN   N  G    G  !!!           |
|           W    W  A    A  R    R  N N  N  II  N N  N  G       !!!           |
|           W WW W  AAAAAA  RRRRR   N  N N  II  N  N N  G  GGG   !            |
|           WW  WW  A    A  R   R   N   NN  II  N   NN  G    G                |
|           W    W  A    A  R    R  N    N  II  N    N   GGGG   !!!           |
|                                                                             |
|     For optimal performance we recommend to set                             |
|       NCORE = 2 up to number-of-cores-per-socket                            |
|     NCORE specifies how many cores store one orbital (NPAR=cpu/NCORE).      |
|     This setting can greatly improve the performance of VASP for DFT.       |
|     The default, NCORE=1 might be grossly inefficient on modern             |
|     multi-core architectures or massively parallel machines. Do your        |
|     own testing! More info at https://www.vasp.at/wiki/index.php/NCORE      |
|     Unfortunately you need to use the default for GW and RPA                |
|     calculations (for HF NCORE is supported but not extensively tested      |
|     yet).                                                                   |
|                                                                             |
 -----------------------------------------------------------------------------

 POTCAR:    PAW_PBE Au 04Oct2007                  
   VRHFIN =Au: s1d10                                                                                
   LEXCH  = PE                                                                                      
   EATOM  =   926.0867 eV,   68.0654 Ry                                                             
                                                                                                    
   TITEL  = PAW_PBE Au 04Oct2007                                                                    
   LULTRA =        F    use ultrasoft PP ?                                                          
   IUNSCR =        1    unscreen: 0-lin 1-nonlin 2-no                                               
   RPACOR =    2.330    partial core radius                                                         
   POMASS =  196.966; ZVAL   =   11.000    mass and valenz                                          
   RCORE  =    2.500    outmost cutoff radius                                                       
   RWIGS  =    2.840; RWIGS  =    1.503    wigner-seitz radius (au A)                               
   ENMAX  =  229.943; ENMIN  =  172.457 eV                                                          
   ICORE  =        3    local potential                                                             
   LCOR   =        T    correct aug charges                                                         
   LPAW   =        T    paw PP                                                                      
   EAUG   =  356.670                                                                                
   DEXC   =    0.000                                                                                
   RMAX   =    2.562    core radius for proj-oper                                                   
   RAUG   =    1.300    factor for augmentation sphere                                              
   RDEP   =    2.598    radius for radial grids                                                     
   RDEPT  =    2.193    core radius for aug-charge                                                  
                                                                                                    
   Atomic configuration                                                                             
   16 entries                                                                                       
     n  l   j            E        occ.                                                              
     1  0  0.50    -80748.5001   2.0000                                                             
     2  0  0.50    -14244.7466   2.0000                                                             
     2  1  1.50    -12310.9591   6.0000                                                             
     3  0  0.50     -3362.1768   2.0000                                                             
     3  1  1.50     -2801.5463   6.0000                                                             
     3  2  2.50     -2203.8206  10.0000                                                             
     4  0  0.50      -729.8168   2.0000                                                             
     4  1  1.50      -546.0527   6.0000                                                             
     4  2  2.50      -325.7302  10.0000                                                             
     4  3  3.50       -81.1472  14.0000                                                             
     5  0  0.50      -108.3201   2.0000                                                             
     5  1  1.50       -59.7479   6.0000                                                             
     5  2  2.50        -6.8783  10.0000                                                             
     6  0  0.50        -5.7602   1.0000                                                             
     6  1  1.50        -6.8029   0.0000                                                             
     5  3  2.50        -1.3606   0.0000                                                             
   Description                                                                                      
     l       E           TYP  RCUT    TYP  RCUT                                                     
     2     -6.8782861     23  2.500                                                                 
     2     -8.2388687     23  2.500                                                                 
     0     -5.7601759     23  2.500                                                                 
     0     -0.8493231     23  2.500                                                                 
     1     -2.7211652     23  2.500                                                                 
     1     27.2116520     23  2.500                                                                 
     3     -1.3605826     23  2.500                                                                 
  local pseudopotential read in
  partial core-charges read in
  partial kinetic energy density read in
  atomic valenz-charges read in
  non local Contribution for L=           2  read in
    real space projection operators read in
  non local Contribution for L=           2  read in
    real space projection operators read in
  non local Contribution for L=           0  read in
    real space projection operators read in
  non local Contribution for L=           0  read in
    real space projection operators read in
  non local Contribution for L=           1  read in
    real space projection operators read in
  non local Contribution for L=           1  read in
    real space projection operators read in
    PAW grid and wavefunctions read in
 
   number of l-projection  operators is LMAX  =           6
   number of lm-projection operators is LMMAX =          18
 
 POTCAR:    PAW_PBE Hf 20Jan2003                  
   VRHFIN =Hf: 6s5d                                                                                 
   LEXCH  = PE                                                                                      
   EATOM  =    75.9011 eV,    5.5786 Ry                                                             
                                                                                                    
   TITEL  = PAW_PBE Hf 20Jan2003                                                                    
   LULTRA =        F    use ultrasoft PP ?                                                          
   IUNSCR =        1    unscreen: 0-lin 1-nonlin 2-no                                               
   RPACOR =    2.500    partial core radius                                                         
   POMASS =  178.490; ZVAL   =    4.000    mass and valenz                                          
   RCORE  =    3.000    outmost cutoff radius                                                       
   RWIGS  =    3.050; RWIGS  =    1.614    wigner-seitz radius (au A)                               
   ENMAX  =  220.334; ENMIN  =  165.250 eV                                                          
   RCLOC  =    2.212    cutoff for local pot                                                        
   LCOR   =        T    correct aug charges                                                         
   LPAW   =        T    paw PP                                                                      
   EAUG   =  335.116                                                                                
   DEXC   =    0.000                                                                                
   RMAX   =    3.077    core radius for proj-oper                                                   
   RAUG   =    1.300    factor for augmentation sphere                                              
   RDEP   =    3.047    radius for radial grids                                                     
   RDEPT  =    2.344    core radius for aug-charge                                                  
                                                                                                    
   Atomic configuration                                                                             
   16 entries                                                                                       
     n  l   j            E        occ.                                                              
     1  0  0.50    -65259.4397   2.0000                                                             
     2  0  0.50    -11157.9882   2.0000                                                             
     2  1  1.50     -9795.2113   6.0000                                                             
     3  0  0.50     -2541.4058   2.0000                                                             
     3  1  1.50     -2134.4770   6.0000                                                             
     3  2  2.50     -1653.5418  10.0000                                                             
     4  0  0.50      -510.9575   2.0000                                                             
     4  1  1.50      -377.5023   6.0000                                                             
     4  2  2.50      -205.2085  10.0000                                                             
     4  3  3.50       -15.4905  14.0000                                                             
     5  0  0.50       -65.6020   2.0000                                                             
     5  1  1.50       -34.2798   6.0000                                                             
     5  2  2.50        -1.9877   3.0000                                                             
     6  0  0.50        -4.7357   1.0000                                                             
     6  1  1.50        -1.3606   0.0000                                                             
     5  3  2.50        -1.3606   0.0000                                                             
   Description                                                                                      
     l       E           TYP  RCUT    TYP  RCUT                                                     
     2     -1.9876627     23  2.500                                                                 
     2      0.0744703     23  2.500                                                                 
     0     -4.7356889     23  2.600                                                                 
     0      3.2364747     23  2.600                                                                 
     1     -1.3605826     23  3.000                                                                 
     1     27.2116520     23  3.000                                                                 
  local pseudopotential read in
  partial core-charges read in
  partial kinetic energy density read in
  atomic valenz-charges read in
  non local Contribution for L=           2  read in
    real space projection operators read in
  non local Contribution for L=           2  read in
    real space projection operators read in
  non local Contribution for L=           0  read in
    real space projection operators read in
  non local Contribution for L=           0  read in
    real space projection operators read in
  non local Contribution for L=           1  read in
    real space projection operators read in
  non local Contribution for L=           1  read in
    real space projection operators read in
    PAW grid and wavefunctions read in
 
   number of l-projection  operators is LMAX  =           6
   number of lm-projection operators is LMMAX =          18
 
 POTCAR:    PAW_PBE C 08Apr2002                   
   VRHFIN =C: s2p2                                                                                  
   LEXCH  = PE                                                                                      
   EATOM  =   147.1560 eV,   10.8157 Ry                                                             
                                                                                                    
   TITEL  = PAW_PBE C 08Apr2002                                                                     
   LULTRA =        F    use ultrasoft PP ?                                                          
   IUNSCR =        1    unscreen: 0-lin 1-nonlin 2-no                                               
   RPACOR =    1.200    partial core radius                                                         
   POMASS =   12.011; ZVAL   =    4.000    mass and valenz                                          
   RCORE  =    1.500    outmost cutoff radius                                                       
   RWIGS  =    1.630; RWIGS  =    0.863    wigner-seitz radius (au A)                               
   ENMAX  =  400.000; ENMIN  =  300.000 eV                                                          
   ICORE  =        2    local potential                                                             
   LCOR   =        T    correct aug charges                                                         
   LPAW   =        T    paw PP                                                                      
   EAUG   =  644.873                                                                                
   DEXC   =    0.000                                                                                
   RMAX   =    1.529    core radius for proj-oper                                                   
   RAUG   =    1.300    factor for augmentation sphere                                              
   RDEP   =    1.501    radius for radial grids                                                     
   RDEPT  =    1.300    core radius for aug-charge                                                  
                                                                                                    
   Atomic configuration                                                                             
    4 entries                                                                                       
     n  l   j            E        occ.                                                              
     1  0  0.50      -273.3789   2.0000                                                             
     2  0  0.50       -13.7508   2.0000                                                             
     2  1  0.50        -5.2854   2.0000                                                             
     3  2  1.50        -5.4423   0.0000                                                             
   Description                                                                                      
     l       E           TYP  RCUT    TYP  RCUT                                                     
     0    -13.7508458     23  1.200                                                                 
     0     -8.2022199     23  1.200                                                                 
     1     -5.2854383     23  1.500                                                                 
     1     34.0145650     23  1.500                                                                 
     2     -5.4423304      7  1.500                                                                 
  local pseudopotential read in
  partial core-charges read in
  partial kinetic energy density read in
  atomic valenz-charges read in
  non local Contribution for L=           0  read in
    real space projection operators read in
  non local Contribution for L=           0  read in
    real space projection operators read in
  non local Contribution for L=           1  read in
    real space projection operators read in
  non local Contribution for L=           1  read in
    real space projection operators read in
    PAW grid and wavefunctions read in
 
   number of l-projection  operators is LMAX  =           4
   number of lm-projection operators is LMMAX =           8
 
 POTCAR:    PAW_PBE O 08Apr2002                   
   VRHFIN =O: s2p4                                                                                  
   LEXCH  = PE                                                                                      
   EATOM  =   432.3788 eV,   31.7789 Ry                                                             
                                                                                                    
   TITEL  = PAW_PBE O 08Apr2002                                                                     
   LULTRA =        F    use ultrasoft PP ?                                                          
   IUNSCR =        1    unscreen: 0-lin 1-nonlin 2-no                                               
   RPACOR =    1.200    partial core radius                                                         
   POMASS =   16.000; ZVAL   =    6.000    mass and valenz                                          
   RCORE  =    1.520    outmost cutoff radius                                                       
   RWIGS  =    1.550; RWIGS  =    0.820    wigner-seitz radius (au A)                               
   ENMAX  =  400.000; ENMIN  =  300.000 eV                                                          
   ICORE  =        2    local potential                                                             
   LCOR   =        T    correct aug charges                                                         
   LPAW   =        T    paw PP                                                                      
   EAUG   =  605.392                                                                                
   DEXC   =    0.000                                                                                
   RMAX   =    1.553    core radius for proj-oper                                                   
   RAUG   =    1.300    factor for augmentation sphere                                              
   RDEP   =    1.550    radius for radial grids                                                     
   RDEPT  =    1.329    core radius for aug-charge                                                  
                                                                                                    
   Atomic configuration                                                                             
    4 entries                                                                                       
     n  l   j            E        occ.                                                              
     1  0  0.50      -514.6923   2.0000                                                             
     2  0  0.50       -23.9615   2.0000                                                             
     2  1  0.50        -9.0305   4.0000                                                             
     3  2  1.50        -9.5241   0.0000                                                             
   Description                                                                                      
     l       E           TYP  RCUT    TYP  RCUT                                                     
     0    -23.9615318     23  1.200                                                                 
     0     -9.5240782     23  1.200                                                                 
     1     -9.0304911     23  1.520                                                                 
     1      8.1634956     23  1.520                                                                 
     2     -9.5240782      7  1.500                                                                 
  local pseudopotential read in
  partial core-charges read in
  partial kinetic energy density read in
  kinetic energy density of atom read in
  atomic valenz-charges read in
  non local Contribution for L=           0  read in
    real space projection operators read in
  non local Contribution for L=           0  read in
    real space projection operators read in
  non local Contribution for L=           1  read in
    real space projection operators read in
  non local Contribution for L=           1  read in
    real space projection operators read in
    PAW grid and wavefunctions read in
 
   number of l-projection  operators is LMAX  =           4
   number of lm-projection operators is LMMAX =           8
 
 Optimization of the real space projectors (new method)

 maximal supplied QI-value         = 15.12
 optimisation between [QCUT,QGAM] = [ 11.34, 22.83] = [ 36.00,145.93] Ry 
 Optimized for a Real-space Cutoff    1.39 Angstroem

   l    n(q)    QCUT    max X(q) W(low)/X(q) W(high)/X(q)  e(spline) 
   2      9    11.338    60.898    0.39E-03    0.42E-03    0.21E-06
   2      9    11.338    58.894    0.40E-03    0.42E-03    0.22E-06
   0      9    11.338   109.617    0.13E-03    0.20E-04    0.13E-06
   0      9    11.338    75.026    0.13E-03    0.20E-04    0.13E-06
   1      9    11.338    16.344    0.33E-04    0.24E-03    0.18E-06
   1      9    11.338    10.160    0.26E-04    0.19E-03    0.15E-06
 Optimization of the real space projectors (new method)

 maximal supplied QI-value         = 12.47
 optimisation between [QCUT,QGAM] = [ 11.35, 22.82] = [ 36.07,145.88] Ry 
 Optimized for a Real-space Cutoff    1.66 Angstroem

   l    n(q)    QCUT    max X(q) W(low)/X(q) W(high)/X(q)  e(spline) 
   2     10    11.350    48.111    0.20E-03    0.11E-03    0.41E-06
   2     10    11.350    40.545    0.19E-03    0.10E-03    0.39E-06
   0     11    11.350   121.658    0.22E-04    0.19E-04    0.24E-06
   0     11    11.350    71.177    0.17E-04    0.17E-04    0.23E-06
   1     11    11.350    14.183    0.25E-03    0.43E-03    0.12E-05
   1     11    11.350     8.257    0.17E-03    0.29E-03    0.81E-06
 Optimization of the real space projectors (new method)

 maximal supplied QI-value         = 25.13
 optimisation between [QCUT,QGAM] = [ 11.31, 22.87] = [ 35.82,146.48] Ry 
 Optimized for a Real-space Cutoff    1.00 Angstroem

   l    n(q)    QCUT    max X(q) W(low)/X(q) W(high)/X(q)  e(spline) 
   0      7    11.310   115.676    0.43E-03    0.13E-02    0.19E-06
   0      7    11.310    87.132    0.43E-03    0.13E-02    0.18E-06
   1      6    11.310     4.429    0.42E-03    0.74E-03    0.11E-06
   1      6    11.310     2.733    0.34E-03    0.55E-03    0.92E-07
 Optimization of the real space projectors (new method)

 maximal supplied QI-value         = 24.76
 optimisation between [QCUT,QGAM] = [ 11.39, 22.77] = [ 36.31,145.25] Ry 
 Optimized for a Real-space Cutoff    1.00 Angstroem

   l    n(q)    QCUT    max X(q) W(low)/X(q) W(high)/X(q)  e(spline) 
   0      7    11.387    20.381    0.39E-03    0.13E-02    0.15E-06
   0      7    11.387    15.268    0.42E-03    0.14E-02    0.17E-06
   1      6    11.387     5.964    0.41E-03    0.11E-02    0.17E-06
   1      6    11.387     5.382    0.39E-03    0.87E-03    0.15E-06
  PAW_PBE Au 04Oct2007                  :
 energy of atom  1       EATOM= -926.0867
 kinetic energy error for atom=    0.0042 (will be added to EATOM!!)
  PAW_PBE Hf 20Jan2003                  :
 energy of atom  2       EATOM=  -75.9011
 kinetic energy error for atom=    0.0007 (will be added to EATOM!!)
  PAW_PBE C 08Apr2002                   :
 energy of atom  3       EATOM= -147.1560
 kinetic energy error for atom=    0.0076 (will be added to EATOM!!)
  PAW_PBE O 08Apr2002                   :
 energy of atom  4       EATOM= -432.3788
 kinetic energy error for atom=    0.0224 (will be added to EATOM!!)
 
 
 POSCAR: Au-Hf-CO2
  positions in direct lattice
  velocities in cartesian coordinates
 exchange correlation table for  LEXCH =        8
   RHO(1)=    0.500       N(1)  =     2000
   RHO(2)=  100.500       N(2)  =     4000

 VTST: version 3.2, (02/03/18)

 CHAIN: initializing optimizer
 
 OPT: Using VASP Conjugate-Gradient optimizer
 CHAIN: Read ICHAIN            0
 
 POSCAR: Au-Hf-CO2
  positions in direct lattice
  velocities in cartesian coordinates
 


--------------------------------------------------------------------------------------------------------


 ion  position               nearest neighbor table
   1  0.000  0.000  0.217-  16 2.94  12 2.94   6 2.94   8 2.94   7 2.94   3 2.94  10 2.94   4 2.94
                             2 2.94
   2  0.333  0.000  0.217-   9 2.94  11 2.94  17 2.94  10 2.94   8 2.94   4 2.94   5 2.94   1 2.94
                             3 2.94
   3  0.667  0.000  0.217-   7 2.94  18 2.94  12 2.94   1 2.94  11 2.94   5 2.94   6 2.94   9 2.94
                             2 2.94
   4  0.000  0.333  0.217-  10 2.94   6 2.94   5 2.94  13 2.94   2 2.94  15 2.94   9 2.94   1 2.94
                             7 2.94
   5  0.333  0.333  0.217-  13 2.94   7 2.94  11 2.94   4 2.94   2 2.94  14 2.94   3 2.94   8 2.94
                             6 2.94
   6  0.667  0.333  0.217-  15 2.94  14 2.94   1 2.94  12 2.94   4 2.94   9 2.94   8 2.94   3 2.94
                             5 2.94
   7  0.000  0.667  0.217-  18 2.94   3 2.94  16 2.94   5 2.94   1 2.94  13 2.94   8 2.94   4 2.94
                             9 2.94
   8  0.333  0.667  0.217-   9 2.94  17 2.94   1 2.94   2 2.94  14 2.94  16 2.94   6 2.94   7 2.94
                             5 2.94
   9  0.667  0.667  0.217-   2 2.94   8 2.94  17 2.94   6 2.94  15 2.94   4 2.94   3 2.94  18 2.94
                             7 2.94
  10  0.111  0.111  0.315-  20 2.93  26 2.94  19 2.94  11 2.94  17 2.94   2 2.94   4 2.94   1 2.94
                            12 2.94  16 2.94  13 2.94  15 2.94
  11  0.444  0.111  0.315-  20 2.92  21 2.92  13 2.94   2 2.94  10 2.94  17 2.94   5 2.94   3 2.94
                            18 2.94  14 2.94  12 2.94  27 2.94
  12  0.778  0.111  0.315-  21 2.93  25 2.94  19 2.94  16 2.94  18 2.94   1 2.94  14 2.94  15 2.94
                             3 2.94   6 2.94  10 2.94  11 2.94
  13  0.111  0.444  0.315-  23 2.92  20 2.92   5 2.94  18 2.94  11 2.94   7 2.94   4 2.94  16 2.94
                            10 2.94  14 2.94  15 2.94  22 2.94
  14  0.444  0.444  0.315-  21 2.92  23 2.92  15 2.94   6 2.94  12 2.94   8 2.94  17 2.94   5 2.94
                            16 2.94  13 2.94  11 2.94  24 2.94
  15  0.778  0.444  0.315-  24 2.93  22 2.93  19 2.94  14 2.94   6 2.94  17 2.94  12 2.94   9 2.94
                             4 2.94  10 2.94  13 2.94  18 2.94
  16  0.111  0.778  0.315-  23 2.93  25 2.94  26 2.94  18 2.94  12 2.94   7 2.94   1 2.94   8 2.94
                            13 2.94  10 2.94  14 2.94  17 2.94
  17  0.444  0.778  0.315-  27 2.93  24 2.93  26 2.94   9 2.94  15 2.94   2 2.94  10 2.94  11 2.94
                             8 2.94  14 2.94  16 2.94  18 2.94
  18  0.778  0.778  0.315-  22 2.93  27 2.93  25 2.94  16 2.94   7 2.94  13 2.94  12 2.94   3 2.94
                            11 2.94   9 2.94  15 2.94  17 2.94
  19  0.889  0.222  0.413-  15 2.94  10 2.94  12 2.94  24 2.94  22 2.94  26 2.94  25 2.94  21 2.94
                            20 2.94  28 2.96  32 3.04  31 3.04
  20  0.223  0.223  0.413-  36 2.81  11 2.92  13 2.92  23 2.93  21 2.93  10 2.93  26 2.94  19 2.94
                            27 2.95  22 2.95  29 2.99  31 2.99
  21  0.555  0.223  0.413-  36 2.81  14 2.92  11 2.92  20 2.93  23 2.93  12 2.93  25 2.94  19 2.94
                            27 2.95  24 2.95  30 2.99  32 2.99
  22  0.887  0.556  0.413-  24 2.92  27 2.92  18 2.93  15 2.93  25 2.94  19 2.94  13 2.94  23 2.95
                            20 2.95  35 2.96  33 3.01  31 3.01
  23  0.223  0.555  0.413-  36 2.81  13 2.92  14 2.92  20 2.93  21 2.93  16 2.93  25 2.94  26 2.94
                            22 2.95  24 2.95  33 2.99  34 2.99
  24  0.556  0.556  0.413-  27 2.92  22 2.92  15 2.93  17 2.93  26 2.94  19 2.94  14 2.94  21 2.95
                            23 2.95  35 2.96  32 3.01  34 3.01
  25  0.889  0.889  0.413-  18 2.94  16 2.94  12 2.94  22 2.94  27 2.94  19 2.94  26 2.94  23 2.94
                            21 2.94  28 2.96  33 3.04  30 3.04
  26  0.222  0.889  0.413-  17 2.94  10 2.94  16 2.94  27 2.94  24 2.94  19 2.94  25 2.94  20 2.94
                            23 2.94  28 2.96  29 3.04  34 3.04
  27  0.556  0.887  0.413-  24 2.92  22 2.92  17 2.93  18 2.93  26 2.94  25 2.94  11 2.94  20 2.95
                            21 2.95  35 2.96  29 3.01  30 3.01
  28  0.000  0.000  0.513-  25 2.96  19 2.96  26 2.96  34 2.98  32 2.98  33 2.98  30 2.98  31 2.98
                            29 2.98
  29  0.334  0.008  0.515-  30 2.86  31 2.87  36 2.88  35 2.97  28 2.98  20 2.99  27 3.01  26 3.04
                            34 3.08
  30  0.658  0.008  0.515-  29 2.86  32 2.87  36 2.88  35 2.97  28 2.98  21 2.99  27 3.01  25 3.04
                            33 3.08
  31  0.008  0.334  0.515-  33 2.86  29 2.87  36 2.88  35 2.97  28 2.98  20 2.99  22 3.01  19 3.04
                            32 3.08
  32  0.658  0.334  0.515-  34 2.86  30 2.87  36 2.88  35 2.97  28 2.98  21 2.99  24 3.01  19 3.04
                            31 3.08
  33  0.008  0.658  0.515-  31 2.86  34 2.87  36 2.88  35 2.97  28 2.98  23 2.99  22 3.01  25 3.04
                            30 3.08
  34  0.334  0.658  0.515-  32 2.86  33 2.87  36 2.88  35 2.97  28 2.98  23 2.99  24 3.01  26 3.04
                            29 3.08
  35  0.667  0.667  0.513-  24 2.96  27 2.96  22 2.96  29 2.97  34 2.97  32 2.97  31 2.97  30 2.97
                            33 2.97
  36  0.333  0.333  0.505-  20 2.81  23 2.81  21 2.81  33 2.88  31 2.88  29 2.88  30 2.88  34 2.88
                            32 2.88
  37  0.329  0.333  0.672-  39 1.18  38 1.18
  38  0.195  0.333  0.669-  37 1.18
  39  0.462  0.333  0.674-  37 1.18
 
  LATTYP: Found a hexagonal cell.
 ALAT       =     8.8135128021
 C/A-ratio  =     2.7649717827
  
  Lattice vectors:
  
 A1 = (  -4.4067569092,  -7.6327256898,   0.0000000000)
 A2 = (   8.8135128021,   0.0000000000,   0.0000000000)
 A3 = (   0.0000000000,   0.0000000000,  24.3691142040)


Analysis of symmetry for initial positions (statically):
=====================================================================
 Subroutine PRICEL returns:
 Original cell was already a primitive cell.
 

 Routine SETGRP: Setting up the symmetry group for a 
 hexagonal supercell.


 Subroutine GETGRP returns: Found  1 space group operations
 (whereof  1 operations were pure point group operations)
 out of a pool of 24 trial point group operations.


The static configuration has the point symmetry C_1 .


Analysis of symmetry for dynamics (positions and initial velocities):
=====================================================================
 Subroutine PRICEL returns:
 Original cell was already a primitive cell.
 

 Routine SETGRP: Setting up the symmetry group for a 
 hexagonal supercell.


 Subroutine GETGRP returns: Found  1 space group operations
 (whereof  1 operations were pure point group operations)
 out of a pool of 24 trial point group operations.


The dynamic configuration has the point symmetry C_1 .


Analysis of constrained symmetry for selective dynamics:
=====================================================================
 Subroutine PRICEL returns:
 Original cell was already a primitive cell.
 

 Routine SETGRP: Setting up the symmetry group for a 
 hexagonal supercell.


 Subroutine GETGRP returns: Found  1 space group operations
 (whereof  1 operations were pure point group operations)
 out of a pool of 24 trial point group operations.


The constrained configuration has the point symmetry C_1 .


 Subroutine INISYM returns: Found  1 space group operations
 (whereof  1 operations are pure point group operations),
 and found     1 'primitive' translations


----------------------------------------------------------------------------------------

                                     Primitive cell                                     

  volume of cell :    1639.3377

  direct lattice vectors                    reciprocal lattice vectors
     8.813512802  0.000000000  0.000000000     0.113462137 -0.065507406  0.000000000
     4.406756909  7.632725690  0.000000000     0.000000000  0.131014796  0.000000000
     0.000000000  0.000000000 24.369114204     0.000000000  0.000000000  0.041035550

  length of vectors
     8.813512802  8.813512802 24.369114204     0.131014796  0.131014796  0.041035550

  position of ions in fractional coordinates (direct lattice)
     0.000000000  0.000000000  0.216683294
     0.333333343  0.000000000  0.216683294
     0.666666687  0.000000000  0.216683294
     1.000000000  0.333333343  0.216683294
     0.333333313  0.333333343  0.216683294
     0.666666687  0.333333343  0.216683294
     1.000000000  0.666666687  0.216683294
     0.333333343  0.666666687  0.216683294
     0.666666627  0.666666687  0.216683294
     0.111111119  0.111111112  0.315116667
     0.444444418  0.111111112  0.315116667
     0.777777791  0.111111112  0.315116667
     0.111111127  0.444444448  0.315116667
     0.444444478  0.444444448  0.315116667
     0.777777731  0.444444448  0.315116667
     0.111111090  0.777777791  0.315116667
     0.444444448  0.777777791  0.315116667
     0.777777851  0.777777791  0.315116667
     0.888875580  0.222248856  0.413420297
     0.222641404  0.222641389  0.412869843
     0.554717252  0.222641389  0.412869843
     0.887340861  0.556329600  0.413222722
     0.222641359  0.554717252  0.412869843
     0.556329600  0.556329600  0.413222722
     0.888875580  0.888875580  0.413420297
     0.222248886  0.888875580  0.413420297
     0.556329540  0.887340861  0.413222722
     0.000000000  0.000000000  0.512809781
     0.333875472  0.007863498  0.515359098
     0.658261060  0.007863498  0.515359098
     0.007863498  0.333875472  0.515359098
     0.658261060  0.333875472  0.515359098
     0.007863498  0.658261060  0.515359098
     0.333875472  0.658261060  0.515359098
     0.666666627  0.666666687  0.513269026
     0.333333313  0.333333343  0.505211139
     0.328769168  0.333365850  0.671964333
     0.195448082  0.333450511  0.668589750
     0.462147874  0.333314869  0.674390709

  ion indices of the primitive-cell ions
   primitive index   ion index
                 1           1
                 2           2
                 3           3
                 4           4
                 5           5
                 6           6
                 7           7
                 8           8
                 9           9
                10          10
                11          11
                12          12
                13          13
                14          14
                15          15
                16          16
                17          17
                18          18
                19          19
                20          20
                21          21
                22          22
                23          23
                24          24
                25          25
                26          26
                27          27
                28          28
                29          29
                30          30
                31          31
                32          32
                33          33
                34          34
                35          35
                36          36
                37          37
                38          38
                39          39

----------------------------------------------------------------------------------------

 
 
 KPOINTS: Automatic mesh                          

Automatic generation of k-mesh.
 Grid dimensions read from file:
 generate k-points for:    8    8    1

 Generating k-lattice:

  Cartesian coordinates                     Fractional coordinates (reciprocal lattice)
     0.014182767 -0.008188426  0.000000000     0.125000000 -0.000000000  0.000000000
     0.000000000  0.016376850  0.000000000     0.000000000  0.125000000  0.000000000
     0.000000000  0.000000000  0.041035550     0.000000000  0.000000000  1.000000000

  Length of vectors
     0.016376850  0.016376850  0.041035550

  Shift w.r.t. Gamma in fractional coordinates (k-lattice)
     0.000000000  0.000000000  0.000000000

 TETIRR: Found    192 inequivalent tetrahedra from      384
 
 Subroutine IBZKPT returns following result:
 ===========================================
 
 Found     34 irreducible k-points:
 
 Following reciprocal coordinates:
            Coordinates               Weight
  0.000000  0.000000  0.000000      1.000000
  0.125000  0.000000  0.000000      2.000000
  0.125000  0.125000  0.000000      2.000000
  0.000000  0.125000  0.000000      2.000000
  0.250000  0.000000  0.000000      2.000000
  0.250000  0.250000  0.000000      2.000000
  0.000000  0.250000  0.000000      2.000000
  0.375000 -0.000000  0.000000      2.000000
  0.375000  0.375000  0.000000      2.000000
  0.000000  0.375000  0.000000      2.000000
  0.500000  0.000000  0.000000      1.000000
  0.500000  0.500000  0.000000      1.000000
  0.000000  0.500000  0.000000      1.000000
  0.250000  0.125000  0.000000      2.000000
  0.125000  0.250000  0.000000      2.000000
 -0.125000  0.125000  0.000000      2.000000
  0.375000  0.125000  0.000000      2.000000
  0.250000  0.375000  0.000000      2.000000
 -0.125000  0.250000  0.000000      2.000000
  0.250000 -0.125000  0.000000      2.000000
 -0.125000 -0.375000  0.000000      2.000000
 -0.375000 -0.250000  0.000000      2.000000
  0.500000  0.125000  0.000000      2.000000
  0.375000  0.500000  0.000000      2.000000
 -0.125000  0.375000  0.000000      2.000000
  0.375000 -0.125000  0.000000      2.000000
 -0.125000  0.500000  0.000000      2.000000
  0.500000 -0.375000  0.000000      2.000000
  0.500000  0.250000  0.000000      2.000000
  0.250000  0.500000  0.000000      2.000000
 -0.250000  0.250000  0.000000      2.000000
 -0.375000  0.250000  0.000000      2.000000
  0.375000 -0.375000  0.000000      2.000000
 -0.250000  0.375000  0.000000      2.000000
 
 Following cartesian coordinates:
            Coordinates               Weight
  0.000000  0.000000  0.000000      1.000000
  0.014183 -0.008188  0.000000      2.000000
  0.014183  0.008188  0.000000      2.000000
  0.000000  0.016377  0.000000      2.000000
  0.028366 -0.016377  0.000000      2.000000
  0.028366  0.016377  0.000000      2.000000
  0.000000  0.032754  0.000000      2.000000
  0.042548 -0.024565  0.000000      2.000000
  0.042548  0.024565  0.000000      2.000000
  0.000000  0.049131  0.000000      2.000000
  0.056731 -0.032754  0.000000      1.000000
  0.056731  0.032754  0.000000      1.000000
  0.000000  0.065507  0.000000      1.000000
  0.028366 -0.000000  0.000000      2.000000
  0.014183  0.024565  0.000000      2.000000
 -0.014183  0.024565  0.000000      2.000000
  0.042548 -0.008188  0.000000      2.000000
  0.028366  0.032754  0.000000      2.000000
 -0.014183  0.040942  0.000000      2.000000
  0.028366 -0.032754  0.000000      2.000000
 -0.014183 -0.040942  0.000000      2.000000
 -0.042548 -0.008188  0.000000      2.000000
  0.056731 -0.016377  0.000000      2.000000
  0.042548  0.040942  0.000000      2.000000
 -0.014183  0.057319  0.000000      2.000000
  0.042548 -0.040942  0.000000      2.000000
 -0.014183  0.073696  0.000000      2.000000
  0.056731 -0.081884  0.000000      2.000000
  0.056731 -0.000000  0.000000      2.000000
  0.028366  0.049131  0.000000      2.000000
 -0.028366  0.049131  0.000000      2.000000
 -0.042548  0.057319  0.000000      2.000000
  0.042548 -0.073696  0.000000      2.000000
 -0.028366  0.065507  0.000000      2.000000
 


--------------------------------------------------------------------------------------------------------




 Dimension of arrays:
   k-points           NKPTS =     34   k-points in BZ     NKDIM =     34   number of bands    NBANDS=    252
   number of dos      NEDOS =    301   number of ions     NIONS =     39
   non local maximal  LDIM  =      6   non local SUM 2l+1 LMDIM =     18
   total plane-waves  NPLWV = 322560
   max r-space proj   IRMAX =   3816   max aug-charges    IRDMAX=  13410
   dimension x,y,z NGX =    48 NGY =   48 NGZ =  140
   dimension x,y,z NGXF=    96 NGYF=   96 NGZF=  280
   support grid    NGXF=    96 NGYF=   96 NGZF=  280
   ions per type =              35   1   1   2
   NGX,Y,Z   is equivalent  to a cutoff of   9.05,  9.05,  9.55 a.u.
   NGXF,Y,Z  is equivalent  to a cutoff of  18.11, 18.11, 19.10 a.u.

 SYSTEM =  unknown system                          
 POSCAR =  Au-Hf-CO2                               

 Startparameter for this run:
   NWRITE =      2    write-flag & timer
   PREC   = normal    normal or accurate (medium, high low for compatibility)
   ISTART =      0    job   : 0-new  1-cont  2-samecut
   ICHARG =     11    charge: 1-file 2-atom 10-const
   ISPIN  =      1    spin polarized calculation?
   LNONCOLLINEAR =      F non collinear calculations
   LSORBIT =      F    spin-orbit coupling
   INIWAV =      1    electr: 0-lowe 1-rand  2-diag
   LASPH  =      F    aspherical Exc in radial PAW
   METAGGA=      F    non-selfconsistent MetaGGA calc.

 Electronic Relaxation 1
   ENCUT  =  500.0 eV  36.75 Ry    6.06 a.u.  16.07 16.07 44.43*2*pi/ulx,y,z
   ENINI  =  500.0     initial cutoff
   ENAUG  =  644.9 eV  augmentation charge cutoff
   NELM   =    150;   NELMIN=  2; NELMDL= -5     # of ELM steps 
   EDIFF  = 0.1E-04   stopping-criterion for ELM
   LREAL  =      T    real-space projection
   NLSPLINE    = F    spline interpolate recip. space projectors
   LCOMPAT=      F    compatible to vasp.4.4
   GGA_COMPAT  = T    GGA compatible to vasp.4.4-vasp.4.6
   LMAXPAW     = -100 max onsite density
   LMAXMIX     =    2 max onsite mixed and CHGCAR
   VOSKOWN=      0    Vosko Wilk Nusair interpolation
   ROPT   =   -0.00050  -0.00050  -0.00050  -0.00050
 Ionic relaxation
   EDIFFG = -.1E-01   stopping-criterion for IOM
   NSW    =      0    number of steps for IOM
   NBLOCK =      1;   KBLOCK =      1    inner block; outer block 
   IBRION =     -1    ionic relax: 0-MD 1-quasi-New 2-CG
   NFREE  =      1    steps in history (QN), initial steepest desc. (CG)
   ISIF   =      2    stress and relaxation
   IWAVPR =     10    prediction:  0-non 1-charg 2-wave 3-comb
   ISYM   =      2    0-nonsym 1-usesym 2-fastsym
   LCORR  =      T    Harris-Foulkes like correction to forces

   POTIM  = 0.5000    time-step for ionic-motion
   TEIN   =    0.0    initial temperature
   TEBEG  =    0.0;   TEEND  =   0.0 temperature during run
   SMASS  =  -3.00    Nose mass-parameter (am)
   estimated Nose-frequenzy (Omega)   =  0.10E-29 period in steps = 0.13E+47 mass=  -0.178E-26a.u.
   SCALEE = 1.0000    scale energy and forces
   NPACO  =    256;   APACO  = 16.0  distance and # of slots for P.C.
   PSTRESS=    0.0 pullay stress

  Mass of Ions in am
   POMASS = 196.97178.49 12.01 16.00
  Ionic Valenz
   ZVAL   =  11.00  4.00  4.00  6.00
  Atomic Wigner-Seitz radii
   RWIGS  =  -1.00 -1.00 -1.00 -1.00
  virtual crystal weights 
   VCA    =   1.00  1.00  1.00  1.00
   NELECT =     405.0000    total number of electrons
   NUPDOWN=      -1.0000    fix difference up-down

 DOS related values:
   EMIN   =  10.00;   EMAX   =-10.00  energy-range for DOS
   EFERMI =   0.00
   ISMEAR =    -5;   SIGMA  =   0.10  broadening in eV -4-tet -1-fermi 0-gaus

 Electronic relaxation 2 (details)
   IALGO  =     68    algorithm
   LDIAG  =      T    sub-space diagonalisation (order eigenvalues)
   LSUBROT=      F    optimize rotation matrix (better conditioning)
   TURBO    =      0    0=normal 1=particle mesh
   IRESTART =      0    0=no restart 2=restart with 2 vectors
   NREBOOT  =      0    no. of reboots
   NMIN     =      0    reboot dimension
   EREF     =   0.00    reference energy to select bands
   IMIX   =      4    mixing-type and parameters
     AMIX     =   0.40;   BMIX     =  1.00
     AMIX_MAG =   1.60;   BMIX_MAG =  1.00
     AMIN     =   0.10
     WC   =   100.;   INIMIX=   1;  MIXPRE=   1;  MAXMIX= -45

 Intra band minimization:
   WEIMIN = 0.0000     energy-eigenvalue tresh-hold
   EBREAK =  0.99E-08  absolut break condition
   DEPER  =   0.30     relativ break condition  

   TIME   =   0.40     timestep for ELM

  volume/ion in A,a.u.               =      42.03       283.66
  Fermi-wavevector in a.u.,A,eV,Ry     =   1.027236  1.941195 14.357064  1.055214
  Thomas-Fermi vector in A             =   2.161171
 
 Write flags
   LWAVE        =      F    write WAVECAR
   LDOWNSAMPLE  =      F    k-point downsampling of WAVECAR
   LCHARG       =      F    write CHGCAR
   LVTOT        =      F    write LOCPOT, total local potential
   LVHAR        =      F    write LOCPOT, Hartree potential only
   LELF         =      F    write electronic localiz. function (ELF)
   LORBIT       =     10    0 simple, 1 ext, 2 COOP (PROOUT), +10 PAW based schemes


 Dipole corrections
   LMONO  =      F    monopole corrections only (constant potential shift)
   LDIPOL =      F    correct potential (dipole corrections)
   IDIPOL =      0    1-x, 2-y, 3-z, 4-all directions 
   EPSILON=  1.0000000 bulk dielectric constant

 Exchange correlation treatment:
   GGA     =    --    GGA type
   LEXCH   =     8    internal setting for exchange type
   VOSKOWN=      0    Vosko Wilk Nusair interpolation
   LHFCALC =     F    Hartree Fock is set to
   LHFONE  =     F    Hartree Fock one center treatment
   AEXX    =    0.0000 exact exchange contribution

 Linear response parameters
   LEPSILON=     F    determine dielectric tensor
   LRPA    =     F    only Hartree local field effects (RPA)
   LNABLA  =     F    use nabla operator in PAW spheres
   LVEL    =     F    velocity operator in full k-point grid
   LINTERFAST=   F  fast interpolation
   KINTER  =     0    interpolate to denser k-point grid
   CSHIFT  =0.1000    complex shift for real part using Kramers Kronig
   OMEGAMAX=  -1.0    maximum frequency
   DEG_THRESHOLD= 0.2000000E-02 threshold for treating states as degnerate
   RTIME   =   -0.100 relaxation time in fs
  (WPLASMAI=    0.000 imaginary part of plasma frequency in eV, 0.658/RTIME)
   DFIELD  = 0.0000000 0.0000000 0.0000000 field for delta impulse in time
 
 Orbital magnetization related:
   ORBITALMAG=     F  switch on orbital magnetization
   LCHIMAG   =     F  perturbation theory with respect to B field
   DQ        =  0.001000  dq finite difference perturbation B field
   LLRAUG    =     F  two centre corrections for induced B field



--------------------------------------------------------------------------------------------------------


 Static calculation
 charge density and potential remain constant during run
 non-spin polarized calculation
 RMM-DIIS sequential band-by-band and
  variant of blocked Davidson during initial phase
 perform sub-space diagonalisation
    before iterative eigenvector-optimisation
 no mixing
 using additional bands           49
 real space projection scheme for non local part
 use partial core corrections
 calculate Harris-corrections to forces 
   (improved forces if not selfconsistent)
 use gradient corrections 
 WARNING: stress and forces are not correct
  (second derivative of E(xc) not defined)
 use of overlap-Matrix (Vanderbilt PP)
 Fermi weights with tetrahedron method with Bloechl corrections


--------------------------------------------------------------------------------------------------------


  energy-cutoff  :      500.00
  volume of cell :     1639.34
      direct lattice vectors                 reciprocal lattice vectors
     8.813512802  0.000000000  0.000000000     0.113462137 -0.065507406  0.000000000
     4.406756909  7.632725690  0.000000000     0.000000000  0.131014796  0.000000000
     0.000000000  0.000000000 24.369114204     0.000000000  0.000000000  0.041035550

  length of vectors
     8.813512802  8.813512802 24.369114204     0.131014796  0.131014796  0.041035550


 
 k-points in units of 2pi/SCALE and weight: Automatic mesh                          
   0.00000000  0.00000000  0.00000000       0.016
   0.01418277 -0.00818843  0.00000000       0.031
   0.01418277  0.00818842  0.00000000       0.031
   0.00000000  0.01637685  0.00000000       0.031
   0.02836553 -0.01637685  0.00000000       0.031
   0.02836553  0.01637685  0.00000000       0.031
   0.00000000  0.03275370  0.00000000       0.031
   0.04254830 -0.02456528  0.00000000       0.031
   0.04254830  0.02456527  0.00000000       0.031
   0.00000000  0.04913055  0.00000000       0.031
   0.05673107 -0.03275370  0.00000000       0.016
   0.05673107  0.03275370  0.00000000       0.016
   0.00000000  0.06550740  0.00000000       0.016
   0.02836553 -0.00000000  0.00000000       0.031
   0.01418277  0.02456527  0.00000000       0.031
  -0.01418277  0.02456528  0.00000000       0.031
   0.04254830 -0.00818843  0.00000000       0.031
   0.02836553  0.03275370  0.00000000       0.031
  -0.01418277  0.04094212  0.00000000       0.031
   0.02836553 -0.03275370  0.00000000       0.031
  -0.01418277 -0.04094212  0.00000000       0.031
  -0.04254830 -0.00818842  0.00000000       0.031
   0.05673107 -0.01637685  0.00000000       0.031
   0.04254830  0.04094212  0.00000000       0.031
  -0.01418277  0.05731897  0.00000000       0.031
   0.04254830 -0.04094213  0.00000000       0.031
  -0.01418277  0.07369582  0.00000000       0.031
   0.05673107 -0.08188425  0.00000000       0.031
   0.05673107 -0.00000000  0.00000000       0.031
   0.02836553  0.04913055  0.00000000       0.031
  -0.02836553  0.04913055  0.00000000       0.031
  -0.04254830  0.05731898  0.00000000       0.031
   0.04254830 -0.07369583  0.00000000       0.031
  -0.02836553  0.06550740  0.00000000       0.031
 
 k-points in reciprocal lattice and weights: Automatic mesh                          
   0.00000000  0.00000000  0.00000000       0.016
   0.12500000  0.00000000  0.00000000       0.031
   0.12500000  0.12500000  0.00000000       0.031
   0.00000000  0.12500000  0.00000000       0.031
   0.25000000  0.00000000  0.00000000       0.031
   0.25000000  0.25000000  0.00000000       0.031
   0.00000000  0.25000000  0.00000000       0.031
   0.37500000 -0.00000000  0.00000000       0.031
   0.37500000  0.37500000  0.00000000       0.031
   0.00000000  0.37500000  0.00000000       0.031
   0.50000000  0.00000000  0.00000000       0.016
   0.50000000  0.50000000  0.00000000       0.016
   0.00000000  0.50000000  0.00000000       0.016
   0.25000000  0.12500000  0.00000000       0.031
   0.12500000  0.25000000  0.00000000       0.031
  -0.12500000  0.12500000  0.00000000       0.031
   0.37500000  0.12500000  0.00000000       0.031
   0.25000000  0.37500000  0.00000000       0.031
  -0.12500000  0.25000000  0.00000000       0.031
   0.25000000 -0.12500000  0.00000000       0.031
  -0.12500000 -0.37500000  0.00000000       0.031
  -0.37500000 -0.25000000  0.00000000       0.031
   0.50000000  0.12500000  0.00000000       0.031
   0.37500000  0.50000000  0.00000000       0.031
  -0.12500000  0.37500000  0.00000000       0.031
   0.37500000 -0.12500000  0.00000000       0.031
  -0.12500000  0.50000000  0.00000000       0.031
   0.50000000 -0.37500000  0.00000000       0.031
   0.50000000  0.25000000  0.00000000       0.031
   0.25000000  0.50000000  0.00000000       0.031
  -0.25000000  0.25000000  0.00000000       0.031
  -0.37500000  0.25000000  0.00000000       0.031
   0.37500000 -0.37500000  0.00000000       0.031
  -0.25000000  0.37500000  0.00000000       0.031
 
 position of ions in fractional coordinates (direct lattice) 
   0.00000000  0.00000000  0.21668329
   0.33333334  0.00000000  0.21668329
   0.66666669  0.00000000  0.21668329
   0.00000000  0.33333334  0.21668329
   0.33333331  0.33333334  0.21668329
   0.66666669  0.33333334  0.21668329
   0.00000000  0.66666669  0.21668329
   0.33333334  0.66666669  0.21668329
   0.66666663  0.66666669  0.21668329
   0.11111112  0.11111111  0.31511667
   0.44444442  0.11111111  0.31511667
   0.77777779  0.11111111  0.31511667
   0.11111113  0.44444445  0.31511667
   0.44444448  0.44444445  0.31511667
   0.77777773  0.44444445  0.31511667
   0.11111109  0.77777779  0.31511667
   0.44444445  0.77777779  0.31511667
   0.77777785  0.77777779  0.31511667
   0.88887558  0.22224886  0.41342030
   0.22264140  0.22264139  0.41286984
   0.55471725  0.22264139  0.41286984
   0.88734086  0.55632960  0.41322272
   0.22264136  0.55471725  0.41286984
   0.55632960  0.55632960  0.41322272
   0.88887558  0.88887558  0.41342030
   0.22224889  0.88887558  0.41342030
   0.55632954  0.88734086  0.41322272
   0.00000000  0.00000000  0.51280978
   0.33387547  0.00786350  0.51535910
   0.65826106  0.00786350  0.51535910
   0.00786350  0.33387547  0.51535910
   0.65826106  0.33387547  0.51535910
   0.00786350  0.65826106  0.51535910
   0.33387547  0.65826106  0.51535910
   0.66666663  0.66666669  0.51326903
   0.33333331  0.33333334  0.50521114
   0.32876917  0.33336585  0.67196433
   0.19544808  0.33345051  0.66858975
   0.46214787  0.33331487  0.67439071
 
 position of ions in cartesian coordinates  (Angst):
   0.00000000  0.00000000  5.28037993
   2.93783769  0.00000000  5.28037993
   5.87567538  0.00000000  5.28037993
   1.46891901  2.54424197  5.28037993
   4.40675643  2.54424197  5.28037993
   7.34459439  2.54424197  5.28037993
   2.93783803  5.08848395  5.28037993
   5.87567571  5.08848395  5.28037993
   8.81351288  5.08848395  5.28037993
   1.46891893  0.84808064  7.67911405
   4.40675623  0.84808064  7.67911405
   7.34459418  0.84808064  7.67911405
   2.93783798  3.39232256  7.67911405
   5.87567574  3.39232256  7.67911405
   8.81351263  3.39232256  7.67911405
   4.40675667  5.93656453  7.67911405
   7.34459449  5.93656453  7.67911405
  10.28243270  5.93656453  7.67911405
   8.81351299  1.69636455 10.07468643
   2.94337935  1.69936065 10.06127235
   5.87013408  1.69936065 10.06127235
  10.27219934  4.24631123 10.06987170
   4.40675655  4.23400462 10.06127235
   7.35482735  4.24631123 10.06987170
  11.75117491  6.78454347 10.07468643
   5.87585201  6.78454347 10.07468643
   8.81351299  6.77282938 10.06987170
   0.00000000  0.00000000 12.49672013
   2.97726827  0.06001992 12.55884472
   5.83624480  0.06001992 12.55884472
   1.54061308  2.54837989 12.55884472
   7.27290032  2.54837989 12.55884472
   2.97010152  5.02432610 12.55884472
   5.84341222  5.02432610 12.55884472
   8.81351288  5.08848395 12.50791151
   4.40675643  2.54424197 12.31154794
   4.36667354  2.54449009 16.37517558
   3.19201952  2.54513628 16.29293996
   5.54198380  2.54410097 16.43430420
 


--------------------------------------------------------------------------------------------------------


 k-point   1 :   0.0000 0.0000 0.0000  plane waves:   41519
 k-point   2 :   0.1250 0.0000 0.0000  plane waves:   41578
 k-point   3 :   0.1250 0.1250 0.0000  plane waves:   41578
 k-point   4 :   0.0000 0.1250 0.0000  plane waves:   41578
 k-point   5 :   0.2500 0.0000 0.0000  plane waves:   41600
 k-point   6 :   0.2500 0.2500 0.0000  plane waves:   41600
 k-point   7 :   0.0000 0.2500 0.0000  plane waves:   41600
 k-point   8 :   0.3750-0.0000 0.0000  plane waves:   41638
 k-point   9 :   0.3750 0.3750 0.0000  plane waves:   41638
 k-point  10 :   0.0000 0.3750 0.0000  plane waves:   41638
 k-point  11 :   0.5000 0.0000 0.0000  plane waves:   41584
 k-point  12 :   0.5000 0.5000 0.0000  plane waves:   41584
 k-point  13 :   0.0000 0.5000 0.0000  plane waves:   41584
 k-point  14 :   0.2500 0.1250 0.0000  plane waves:   41548
 k-point  15 :   0.1250 0.2500 0.0000  plane waves:   41548
 k-point  16 :  -0.1250 0.1250 0.0000  plane waves:   41548
 k-point  17 :   0.3750 0.1250 0.0000  plane waves:   41640
 k-point  18 :   0.2500 0.3750 0.0000  plane waves:   41640
 k-point  19 :  -0.1250 0.2500 0.0000  plane waves:   41640
 k-point  20 :   0.2500-0.1250 0.0000  plane waves:   41640
 k-point  21 :  -0.1250-0.3750 0.0000  plane waves:   41640
 k-point  22 :  -0.3750-0.2500 0.0000  plane waves:   41640
 k-point  23 :   0.5000 0.1250 0.0000  plane waves:   41652
 k-point  24 :   0.3750 0.5000 0.0000  plane waves:   41652
 k-point  25 :  -0.1250 0.3750 0.0000  plane waves:   41652
 k-point  26 :   0.3750-0.1250 0.0000  plane waves:   41652
 k-point  27 :  -0.1250 0.5000 0.0000  plane waves:   41652
 k-point  28 :   0.5000-0.3750 0.0000  plane waves:   41652
 k-point  29 :   0.5000 0.2500 0.0000  plane waves:   41658
 k-point  30 :   0.2500 0.5000 0.0000  plane waves:   41658
 k-point  31 :  -0.2500 0.2500 0.0000  plane waves:   41658
 k-point  32 :  -0.3750 0.2500 0.0000  plane waves:   41624
 k-point  33 :   0.3750-0.3750 0.0000  plane waves:   41624
 k-point  34 :  -0.2500 0.3750 0.0000  plane waves:   41624

 maximum and minimum number of plane-waves per node :     41658    41519

 maximum number of plane-waves:     41658
 maximum index in each direction: 
   IXMAX=   16   IYMAX=   16   IZMAX=   44
   IXMIN=  -16   IYMIN=  -16   IZMIN=  -44


 serial   3D FFT for wavefunctions
 parallel 3D FFT for charge:
    minimum data exchange during FFTs selected (reduces bandwidth)


 total amount of memory used by VASP MPI-rank0   278553. kBytes
=======================================================================

   base      :      30000. kBytes
   nonlr-proj:      15139. kBytes
   fftplans  :       4808. kBytes
   grid      :      20723. kBytes
   one-center:        606. kBytes
   wavefun   :     207277. kBytes
 
     INWAV:  cpu time    0.0000: real time    0.0001
 initial charge density was supplied:
 number of electron     405.0000156 magnetization 
 keeping initial charge density in first step


--------------------------------------------------------------------------------------------------------


 Maximum index for non-local projection operator         3661
 Maximum index for augmentation-charges          866 (set IRDMAX)


--------------------------------------------------------------------------------------------------------


 First call to EWALD:  gamma=   0.150
 Maximum number of real-space cells 4x 4x 2
 Maximum number of reciprocal cells 2x 2x 5

    FEWALD:  cpu time    0.0013: real time    0.0013


--------------------------------------- Iteration      1(   1)  ---------------------------------------


    POTLOK:  cpu time    0.0470: real time    0.0474
    SETDIJ:  cpu time    0.0052: real time    0.0053
     EDDAV:  cpu time   26.2928: real time   26.2960
 BZINTS: Fermi energy:   11.090030;  405.000000 electrons
         Band energy: 0.135883E+04;  BLOECHL correction:   -0.014673
       DOS:  cpu time    0.0630: real time    0.0631
    --------------------------------------------
      LOOP:  cpu time   26.4080: real time   26.4118

 eigenvalue-minimisations  : 17136
 total energy-change (2. order) : 0.2699268E+04  (-0.1810663E+05)
 number of electron     405.0000156 magnetization 
 augmentation part      405.0000156 magnetization 

 Free energy of the ion-electron system (eV)
  ---------------------------------------------------
  alpha Z        PSCENC =       952.51977144
  Ewald energy   TEWEN  =    118245.85419125
  -Hartree energ DENC   =   -152673.11984360
  -exchange      EXHF   =         0.00000000
  -V(xc)+E(xc)   XCENC  =       534.70011341
  PAW double counting   =     36945.82635305   -36165.99095064
  entropy T*S    EENTRO =         0.00000000
  eigenvalues    EBANDS =      1358.83035240
  atomic energy  EATOM  =     33500.64784906
  Solvation  Ediel_sol  =         0.00000000
  ---------------------------------------------------
  free energy    TOTEN  =      2699.26783637 eV

  energy without entropy =     2699.26783637  energy(sigma->0) =     2699.26783637


--------------------------------------------------------------------------------------------------------




--------------------------------------- Iteration      1(   2)  ---------------------------------------


     EDDAV:  cpu time   28.8697: real time   28.8714
 BZINTS: Fermi energy:    1.150572;  405.000000 electrons
         Band energy:-0.132473E+04;  BLOECHL correction:   -0.056138
       DOS:  cpu time    0.0583: real time    0.0583
    --------------------------------------------
      LOOP:  cpu time   28.9280: real time   28.9298

 eigenvalue-minimisations  : 19264
 total energy-change (2. order) :-0.2683556E+04  (-0.2508354E+04)
 number of electron     405.0000156 magnetization 
 augmentation part      405.0000156 magnetization 

 Free energy of the ion-electron system (eV)
  ---------------------------------------------------
  alpha Z        PSCENC =       952.51977144
  Ewald energy   TEWEN  =    118245.85419125
  -Hartree energ DENC   =   -152673.11984360
  -exchange      EXHF   =         0.00000000
  -V(xc)+E(xc)   XCENC  =       534.70011341
  PAW double counting   =     36945.82635305   -36165.99095064
  entropy T*S    EENTRO =         0.00000000
  eigenvalues    EBANDS =     -1324.72559380
  atomic energy  EATOM  =     33500.64784906
  Solvation  Ediel_sol  =         0.00000000
  ---------------------------------------------------
  free energy    TOTEN  =        15.71189017 eV

  energy without entropy =       15.71189017  energy(sigma->0) =       15.71189017


--------------------------------------------------------------------------------------------------------




--------------------------------------- Iteration      1(   3)  ---------------------------------------


     EDDAV:  cpu time   30.6638: real time   30.6654
 BZINTS: Fermi energy:    0.439972;  405.000000 electrons
         Band energy:-0.147808E+04;  BLOECHL correction:   -0.032685
       DOS:  cpu time    0.0585: real time    0.0585
    --------------------------------------------
      LOOP:  cpu time   30.7223: real time   30.7239

 eigenvalue-minimisations  : 20692
 total energy-change (2. order) :-0.1533539E+03  (-0.1495895E+03)
 number of electron     405.0000156 magnetization 
 augmentation part      405.0000156 magnetization 

 Free energy of the ion-electron system (eV)
  ---------------------------------------------------
  alpha Z        PSCENC =       952.51977144
  Ewald energy   TEWEN  =    118245.85419125
  -Hartree energ DENC   =   -152673.11984360
  -exchange      EXHF   =         0.00000000
  -V(xc)+E(xc)   XCENC  =       534.70011341
  PAW double counting   =     36945.82635305   -36165.99095064
  entropy T*S    EENTRO =         0.00000000
  eigenvalues    EBANDS =     -1478.07950145
  atomic energy  EATOM  =     33500.64784906
  Solvation  Ediel_sol  =         0.00000000
  ---------------------------------------------------
  free energy    TOTEN  =      -137.64201747 eV

  energy without entropy =     -137.64201747  energy(sigma->0) =     -137.64201747


--------------------------------------------------------------------------------------------------------




--------------------------------------- Iteration      1(   4)  ---------------------------------------


     EDDAV:  cpu time   28.8332: real time   28.8378
 BZINTS: Fermi energy:    0.425153;  405.000000 electrons
         Band energy:-0.148113E+04;  BLOECHL correction:   -0.030978
       DOS:  cpu time    0.0599: real time    0.0599
    --------------------------------------------
      LOOP:  cpu time   28.8931: real time   28.8977

 eigenvalue-minimisations  : 19180
 total energy-change (2. order) :-0.3053656E+01  (-0.3030885E+01)
 number of electron     405.0000156 magnetization 
 augmentation part      405.0000156 magnetization 

 Free energy of the ion-electron system (eV)
  ---------------------------------------------------
  alpha Z        PSCENC =       952.51977144
  Ewald energy   TEWEN  =    118245.85419125
  -Hartree energ DENC   =   -152673.11984360
  -exchange      EXHF   =         0.00000000
  -V(xc)+E(xc)   XCENC  =       534.70011341
  PAW double counting   =     36945.82635305   -36165.99095064
  entropy T*S    EENTRO =         0.00000000
  eigenvalues    EBANDS =     -1481.13315750
  atomic energy  EATOM  =     33500.64784906
  Solvation  Ediel_sol  =         0.00000000
  ---------------------------------------------------
  free energy    TOTEN  =      -140.69567353 eV

  energy without entropy =     -140.69567353  energy(sigma->0) =     -140.69567353


--------------------------------------------------------------------------------------------------------




--------------------------------------- Iteration      1(   5)  ---------------------------------------


     EDDAV:  cpu time   30.6512: real time   30.6529
 BZINTS: Fermi energy:    0.424824;  405.000000 electrons
         Band energy:-0.148124E+04;  BLOECHL correction:   -0.031136
       DOS:  cpu time    0.0562: real time    0.0562
    --------------------------------------------
      LOOP:  cpu time   30.7074: real time   30.7090

 eigenvalue-minimisations  : 20692
 total energy-change (2. order) :-0.1072078E+00  (-0.1068964E+00)
 number of electron     405.0000156 magnetization 
 augmentation part      405.0000156 magnetization 

 Free energy of the ion-electron system (eV)
  ---------------------------------------------------
  alpha Z        PSCENC =       952.51977144
  Ewald energy   TEWEN  =    118245.85419125
  -Hartree energ DENC   =   -152673.11984360
  -exchange      EXHF   =         0.00000000
  -V(xc)+E(xc)   XCENC  =       534.70011341
  PAW double counting   =     36945.82635305   -36165.99095064
  entropy T*S    EENTRO =         0.00000000
  eigenvalues    EBANDS =     -1481.24036530
  atomic energy  EATOM  =     33500.64784906
  Solvation  Ediel_sol  =         0.00000000
  ---------------------------------------------------
  free energy    TOTEN  =      -140.80288132 eV

  energy without entropy =     -140.80288132  energy(sigma->0) =     -140.80288132


--------------------------------------------------------------------------------------------------------




--------------------------------------- Iteration      1(   6)  ---------------------------------------


    EDDIAG:  cpu time    5.1989: real time    5.1994
  RMM-DIIS:  cpu time   15.7848: real time   15.7857
    ORTHCH:  cpu time    0.9609: real time    0.9610
 BZINTS: Fermi energy:    0.424823;  405.000000 electrons
         Band energy:-0.148124E+04;  BLOECHL correction:   -0.031136
       DOS:  cpu time    0.0549: real time    0.0549
    --------------------------------------------
      LOOP:  cpu time   21.9995: real time   22.0010

 eigenvalue-minimisations  : 17790
 total energy-change (2. order) :-0.2288703E-02  (-0.2288111E-02)
 number of electron     405.0000156 magnetization 
 augmentation part      405.0000156 magnetization 

 Free energy of the ion-electron system (eV)
  ---------------------------------------------------
  alpha Z        PSCENC =       952.51977144
  Ewald energy   TEWEN  =    118245.85419125
  -Hartree energ DENC   =   -152673.11984360
  -exchange      EXHF   =         0.00000000
  -V(xc)+E(xc)   XCENC  =       534.70011341
  PAW double counting   =     36945.82635305   -36165.99095064
  entropy T*S    EENTRO =         0.00000000
  eigenvalues    EBANDS =     -1481.24265400
  atomic energy  EATOM  =     33500.64784906
  Solvation  Ediel_sol  =         0.00000000
  ---------------------------------------------------
  free energy    TOTEN  =      -140.80517003 eV

  energy without entropy =     -140.80517003  energy(sigma->0) =     -140.80517003


--------------------------------------------------------------------------------------------------------




--------------------------------------- Iteration      1(   7)  ---------------------------------------


    EDDIAG:  cpu time    5.2008: real time    5.2011
  RMM-DIIS:  cpu time   21.0553: real time   21.0566
    ORTHCH:  cpu time    0.9618: real time    0.9618
 BZINTS: Fermi energy:    0.424822;  405.000000 electrons
         Band energy:-0.148124E+04;  BLOECHL correction:   -0.031137
       DOS:  cpu time    0.0587: real time    0.0588
    --------------------------------------------
      LOOP:  cpu time   27.2766: real time   27.2782

 eigenvalue-minimisations  : 24585
 total energy-change (2. order) :-0.8031155E-03  (-0.8003421E-03)
 number of electron     405.0000156 magnetization 
 augmentation part      405.0000156 magnetization 

 Free energy of the ion-electron system (eV)
  ---------------------------------------------------
  alpha Z        PSCENC =       952.51977144
  Ewald energy   TEWEN  =    118245.85419125
  -Hartree energ DENC   =   -152673.11984360
  -exchange      EXHF   =         0.00000000
  -V(xc)+E(xc)   XCENC  =       534.70011341
  PAW double counting   =     36945.82635305   -36165.99095064
  entropy T*S    EENTRO =         0.00000000
  eigenvalues    EBANDS =     -1481.24345712
  atomic energy  EATOM  =     33500.64784906
  Solvation  Ediel_sol  =         0.00000000
  ---------------------------------------------------
  free energy    TOTEN  =      -140.80597314 eV

  energy without entropy =     -140.80597314  energy(sigma->0) =     -140.80597314


--------------------------------------------------------------------------------------------------------




--------------------------------------- Iteration      1(   8)  ---------------------------------------


    EDDIAG:  cpu time    5.2004: real time    5.2008
  RMM-DIIS:  cpu time   17.2127: real time   17.2137
    ORTHCH:  cpu time    0.9609: real time    0.9609
 BZINTS: Fermi energy:    0.424822;  405.000000 electrons
         Band energy:-0.148124E+04;  BLOECHL correction:   -0.031137
       DOS:  cpu time    0.0587: real time    0.0587
    --------------------------------------------
      LOOP:  cpu time   23.4327: real time   23.4341

 eigenvalue-minimisations  : 19483
 total energy-change (2. order) :-0.4775584E-04  (-0.4802070E-04)
 number of electron     405.0000156 magnetization 
 augmentation part      405.0000156 magnetization 

 Free energy of the ion-electron system (eV)
  ---------------------------------------------------
  alpha Z        PSCENC =       952.51977144
  Ewald energy   TEWEN  =    118245.85419125
  -Hartree energ DENC   =   -152673.11984360
  -exchange      EXHF   =         0.00000000
  -V(xc)+E(xc)   XCENC  =       534.70011341
  PAW double counting   =     36945.82635305   -36165.99095064
  entropy T*S    EENTRO =         0.00000000
  eigenvalues    EBANDS =     -1481.24350488
  atomic energy  EATOM  =     33500.64784906
  Solvation  Ediel_sol  =         0.00000000
  ---------------------------------------------------
  free energy    TOTEN  =      -140.80602090 eV

  energy without entropy =     -140.80602090  energy(sigma->0) =     -140.80602090


--------------------------------------------------------------------------------------------------------




--------------------------------------- Iteration      1(   9)  ---------------------------------------


    EDDIAG:  cpu time    5.2012: real time    5.2021
  RMM-DIIS:  cpu time   14.6615: real time   14.6623
    ORTHCH:  cpu time    0.9606: real time    0.9607
 BZINTS: Fermi energy:    0.424822;  405.000000 electrons
         Band energy:-0.148124E+04;  BLOECHL correction:   -0.031137
       DOS:  cpu time    0.0587: real time    0.0587
    --------------------------------------------
      LOOP:  cpu time   20.8821: real time   20.8838

 eigenvalue-minimisations  : 15302
 total energy-change (2. order) :-0.8658360E-05  (-0.8668405E-05)
 number of electron     405.0000156 magnetization 
 augmentation part      405.0000156 magnetization 

 Free energy of the ion-electron system (eV)
  ---------------------------------------------------
  alpha Z        PSCENC =       952.51977144
  Ewald energy   TEWEN  =    118245.85419125
  -Hartree energ DENC   =   -152673.11984360
  -exchange      EXHF   =         0.00000000
  -V(xc)+E(xc)   XCENC  =       534.70011341
  PAW double counting   =     36945.82635305   -36165.99095064
  entropy T*S    EENTRO =         0.00000000
  eigenvalues    EBANDS =     -1481.24351353
  atomic energy  EATOM  =     33500.64784906
  Solvation  Ediel_sol  =         0.00000000
  ---------------------------------------------------
  free energy    TOTEN  =      -140.80602956 eV

  energy without entropy =     -140.80602956  energy(sigma->0) =     -140.80602956


--------------------------------------------------------------------------------------------------------




 average (electrostatic) potential at core
  the test charge radii are     1.2098  1.2481  0.6991  0.7215
  (the norm of the test charge is              1.0000)
       1 -72.6033       2 -72.6156       3 -72.6153       4 -72.6164       5 -72.6161
       6 -72.6158       7 -72.6157       8 -72.6154       9 -72.5998      10 -72.9716
      11 -72.9348      12 -72.9709      13 -72.9354      14 -72.9346      15 -72.9400
      16 -72.9707      17 -72.9382      18 -72.9383      19 -72.9300      20 -73.3314
      21 -73.3309      22 -72.9061      23 -73.3294      24 -72.9056      25 -72.9307
      26 -72.9308      27 -72.9047      28 -72.6462      29 -72.9035      30 -72.9040
      31 -72.8957      32 -72.8970      33 -72.9031      34 -72.9035      35 -72.6423
      36 -42.4467      37 -58.3366      38 -77.3492      39 -77.3474
 
 
 
 E-fermi :   0.4248     XC(G=0):  -5.8478     alpha+bet : -5.3895

 Fermi energy:         0.4248223020

 k-point     1 :       0.0000    0.0000    0.0000
  band No.  band energies     occupation 
      1     -23.8135      2.00000
      2     -22.7936      2.00000
      3      -8.4425      2.00000
      4      -8.4206      2.00000
      5      -7.3524      2.00000
      6      -7.2909      2.00000
      7      -7.2769      2.00000
      8      -7.2235      2.00000
      9      -6.3829      2.00000
     10      -6.3200      2.00000
     11      -6.3096      2.00000
     12      -6.3093      2.00000
     13      -6.2709      2.00000
     14      -6.2516      2.00000
     15      -6.2188      2.00000
     16      -6.2186      2.00000
     17      -5.8312      2.00000
     18      -5.8308      2.00000
     19      -5.8134      2.00000
     20      -5.7994      2.00000
     21      -5.7435      2.00000
     22      -5.7432      2.00000
     23      -5.4594      2.00000
     24      -5.4594      2.00000
     25      -5.4567      2.00000
     26      -5.4439      2.00000
     27      -5.3952      2.00000
     28      -5.3951      2.00000
     29      -5.3257      2.00000
     30      -5.2571      2.00000
     31      -5.2570      2.00000
     32      -5.2483      2.00000
     33      -5.2481      2.00000
     34      -5.2316      2.00000
     35      -5.1090      2.00000
     36      -5.1005      2.00000
     37      -5.1004      2.00000
     38      -5.0845      2.00000
     39      -5.0652      2.00000
     40      -5.0649      2.00000
     41      -5.0596      2.00000
     42      -5.0594      2.00000
     43      -5.0290      2.00000
     44      -5.0288      2.00000
     45      -5.0215      2.00000
     46      -5.0208      2.00000
     47      -4.5934      2.00000
     48      -4.5934      2.00000
     49      -4.5884      2.00000
     50      -4.5475      2.00000
     51      -4.5473      2.00000
     52      -4.5444      2.00000
     53      -4.5102      2.00000
     54      -4.5098      2.00000
     55      -4.4759      2.00000
     56      -4.4749      2.00000
     57      -4.3799      2.00000
     58      -4.3743      2.00000
     59      -4.3566      2.00000
     60      -4.3165      2.00000
     61      -4.1209      2.00000
     62      -4.0544      2.00000
     63      -4.0542      2.00000
     64      -4.0135      2.00000
     65      -3.9976      2.00000
     66      -3.9970      2.00000
     67      -3.9911      2.00000
     68      -3.9240      2.00000
     69      -3.9239      2.00000
     70      -3.8616      2.00000
     71      -3.8615      2.00000
[...]
  0.000   0.000   0.000   0.000   0.000   0.000   0.000   0.000   0.000   0.000   1.000   0.000   0.000   0.000   0.000   0.000
  0.000   0.000   0.000   0.000   0.000   0.000   0.000   0.000   0.000   0.000   0.000   0.000   0.000   0.000   0.000   0.000
  0.000   0.000   0.000   0.000   0.000   0.000   0.000   0.000   0.000   0.000   0.000   0.000   0.000   0.000   0.000   0.000
  0.000   0.000   0.000   0.000   0.000   0.000   0.000   0.000   0.000   0.000   0.000   0.000   0.000   0.000   0.000   0.000
  0.000   0.000   0.000   0.000   0.000   0.000   0.000   0.000   0.000   0.000   0.000   0.000   0.000   0.000   0.000   0.000
  0.000   0.000   0.000   0.000   0.000   0.000   0.000   0.000   0.000   0.000   0.000   0.000   0.000   0.000   0.000   0.000
  0.000   0.000   0.000   0.000   0.000   0.000   0.000   0.000   0.000   0.000   0.000   0.000   0.000   0.000   0.000   0.000
  0.000   0.000   0.000   0.000   0.000   0.000   0.000   0.000   0.000   0.000   0.000   0.000   0.000   0.000   0.000   0.000


------------------------ aborting loop because EDIFF is reached ----------------------------------------





 total charge

# of ion       s       p       d       tot
------------------------------------------
    1        0.551   0.237   8.766   9.554
    2        0.541   0.241   8.765   9.548
    3        0.541   0.241   8.765   9.548
    4        0.541   0.241   8.765   9.548
    5        0.544   0.242   8.760   9.546
    6        0.541   0.241   8.765   9.548
    7        0.541   0.241   8.765   9.548
    8        0.541   0.241   8.765   9.548
    9        0.546   0.239   8.766   9.551
   10        0.523   0.308   8.769   9.600
   11        0.518   0.307   8.778   9.604
   12        0.523   0.308   8.769   9.600
   13        0.519   0.307   8.778   9.604
   14        0.519   0.307   8.778   9.604
   15        0.517   0.308   8.772   9.597
   16        0.523   0.308   8.769   9.600
   17        0.517   0.308   8.772   9.597
   18        0.517   0.308   8.772   9.597
   19        0.521   0.299   8.767   9.587
   20        0.571   0.339   8.727   9.636
   21        0.571   0.339   8.727   9.636
   22        0.511   0.305   8.775   9.591
   23        0.571   0.339   8.727   9.637
   24        0.511   0.305   8.775   9.591
   25        0.521   0.300   8.767   9.587
   26        0.521   0.300   8.767   9.588
   27        0.511   0.305   8.775   9.592
   28        0.540   0.233   8.752   9.526
   29        0.601   0.253   8.722   9.575
   30        0.601   0.253   8.722   9.575
   31        0.600   0.251   8.723   9.574
   32        0.600   0.252   8.722   9.574
   33        0.601   0.253   8.722   9.575
   34        0.601   0.253   8.721   9.575
   35        0.538   0.235   8.755   9.527
   36        0.559   0.473   1.749   2.781
   37        0.933   1.801   0.000   2.733
   38        1.608   3.526   0.000   5.133
   39        1.608   3.527   0.000   5.134
--------------------------------------------------
tot         23.759  19.074 308.236 351.069
 
    CHARGE:  cpu time    1.2354: real time    1.2355
    FORLOC:  cpu time    0.0124: real time    0.0124
    FORNL :  cpu time    5.3531: real time    5.3535
    STRESS:  cpu time   16.0620: real time   16.0631
    FORCOR:  cpu time    0.0514: real time    0.0515
    FORHAR:  cpu time    0.0198: real time    0.0198
    OFIELD:  cpu time    0.0003: real time    0.0003

  FORCE on cell =-STRESS in cart. coord.  units (eV):
  Direction    XX          YY          ZZ          XY          YZ          ZX
  --------------------------------------------------------------------------------------
  Alpha Z   952.51977   952.51977   952.51977
  Ewald  140937.63986140156.13621************    -0.41433    -0.41544    50.67340
  Hartree149299.97947148937.51176************    -0.22232    -0.38411    25.32634
  E(xc)   -1816.39029 -1818.50621 -1825.20220    -0.00079    -0.00002     0.12407
  Local  ************************301168.19120     0.61109     0.79548   -71.74030
  n-local   -90.46309   -84.55559   -57.33518     0.00282     0.02148    -0.35167
  augment  2372.89120  2375.61193  2395.50151    -0.00074    -0.00320    -0.15735
  Kinetic  5649.95106  5715.22717  5776.93550     0.02756    -0.00880    -3.85248
  Fock        0.00000     0.00000     0.00000     0.00000     0.00000     0.00000
  -------------------------------------------------------------------------------------
  Total     -23.18844   -23.18088     2.02271     0.00331     0.00539     0.02201
  in kB     -22.66281   -22.65542     1.97686     0.00323     0.00527     0.02151
  external pressure =      -14.45 kB  Pullay stress =        0.00 kB


 VOLUME and BASIS-vectors are now :
 -----------------------------------------------------------------------------
  energy-cutoff  :      500.00
  volume of cell :     1639.34
      direct lattice vectors                 reciprocal lattice vectors
     8.813512802  0.000000000  0.000000000     0.113462137 -0.065507406  0.000000000
     4.406756909  7.632725690  0.000000000     0.000000000  0.131014796  0.000000000
     0.000000000  0.000000000 24.369114204     0.000000000  0.000000000  0.041035550

  length of vectors
     8.813512802  8.813512802 24.369114204     0.131014796  0.131014796  0.041035550


 FORCES acting on ions
    electron-ion (+dipol)            ewald-force                    non-local-force                 convergence-correction
 -----------------------------------------------------------------------------------------------
   0.498E-02 0.775E-02 0.263E+04   -.225E-02 -.129E-01 -.263E+04   0.129E-03 0.214E-02 -.458E+00   -.297E-02 0.196E-02 -.736E-01
   -.616E-01 -.414E+00 0.263E+04   0.286E-01 0.348E+00 -.263E+04   -.259E-02 0.564E-01 -.391E+00   0.343E-01 0.218E-03 -.518E-01
   0.562E-01 -.430E+00 0.263E+04   -.263E-01 0.352E+00 -.263E+04   0.265E-02 0.566E-01 -.389E+00   -.312E-01 0.128E-01 -.475E-01
   -.396E+00 0.165E+00 0.263E+04   0.326E+00 -.158E+00 -.263E+04   0.461E-01 -.315E-01 -.397E+00   0.164E-01 0.278E-01 -.493E-01
   -.202E-01 -.113E-01 0.263E+04   0.475E-02 -.224E-04 -.263E+04   -.322E-03 0.474E-03 -.367E-01   0.162E-01 0.108E-01 -.311E-01
   0.412E+00 0.163E+00 0.263E+04   -.331E+00 -.158E+00 -.263E+04   -.457E-01 -.320E-01 -.395E+00   -.280E-01 0.311E-01 -.415E-01
   -.358E+00 0.257E+00 0.263E+04   0.302E+00 -.190E+00 -.263E+04   0.528E-01 -.260E-01 -.393E+00   -.400E-02 -.348E-01 -.472E-01
   0.346E+00 0.269E+00 0.263E+04   -.300E+00 -.194E+00 -.263E+04   -.527E-01 -.256E-01 -.392E+00   0.135E-01 -.430E-01 -.437E-01
   0.151E-01 -.666E-02 0.263E+04   -.216E-02 0.130E-01 -.263E+04   0.652E-03 0.253E-03 -.283E+00   -.140E-01 -.659E-02 -.551E-02
   -.101E+01 -.496E+00 0.888E+03   0.112E+01 0.554E+00 -.888E+03   -.202E+00 -.112E+00 -.613E+00   0.630E-01 0.384E-01 -.180E+00
   -.433E-01 -.233E+01 0.885E+03   0.267E-01 0.230E+01 -.884E+03   -.519E-03 -.465E-01 -.210E+00   0.174E-01 0.183E-01 -.164E+00
   0.105E+01 -.532E+00 0.888E+03   -.115E+01 0.576E+00 -.887E+03   0.203E+00 -.112E+00 -.611E+00   -.769E-01 0.517E-01 -.174E+00
   -.212E+01 0.113E+01 0.885E+03   0.209E+01 -.113E+01 -.885E+03   -.419E-01 0.259E-01 -.218E+00   0.228E-01 0.607E-02 -.165E+00
   0.206E+01 0.115E+01 0.885E+03   -.206E+01 -.114E+01 -.884E+03   0.420E-01 0.258E-01 -.217E+00   0.599E-02 0.872E-03 -.159E+00
   0.508E-01 0.245E+01 0.891E+03   -.322E-01 -.257E+01 -.891E+03   0.573E-03 0.140E-01 -.505E+00   -.192E-01 0.666E-01 -.192E+00
   -.933E-02 0.118E+01 0.888E+03   0.630E-02 -.128E+01 -.887E+03   -.285E-03 0.228E+00 -.610E+00   0.337E-02 -.915E-01 -.176E+00
   0.218E+01 -.125E+01 0.891E+03   -.228E+01 0.133E+01 -.890E+03   0.135E-01 -.907E-02 -.503E+00   0.504E-01 -.502E-01 -.194E+00
   -.217E+01 -.130E+01 0.891E+03   0.227E+01 0.136E+01 -.890E+03   -.132E-01 -.987E-02 -.502E+00   -.529E-01 -.315E-01 -.194E+00
   0.251E+00 -.568E+01 -.856E+03   -.229E+00 0.573E+01 0.855E+03   0.174E-02 -.669E-01 0.552E+00   -.251E-01 0.236E-01 -.157E-02
   -.275E+02 -.153E+02 -.882E+03   0.283E+02 0.158E+02 0.883E+03   -.999E+00 -.566E+00 -.101E+01   0.121E+00 0.725E-01 0.451E-01
   0.272E+02 -.154E+02 -.883E+03   -.281E+02 0.159E+02 0.884E+03   0.996E+00 -.566E+00 -.102E+01   -.902E-01 0.829E-01 0.401E-01
   -.197E+02 0.107E+02 -.852E+03   0.194E+02 -.105E+02 0.852E+03   0.244E+00 -.147E+00 0.613E+00   0.326E-01 -.293E-01 -.550E-01
   -.216E+00 0.309E+02 -.883E+03   0.193E+00 -.319E+02 0.884E+03   -.607E-04 0.114E+01 -.103E+01   0.238E-01 -.122E+00 0.394E-01
   0.199E+02 0.109E+02 -.853E+03   -.196E+02 -.107E+02 0.852E+03   -.244E+00 -.145E+00 0.607E+00   -.606E-01 -.394E-01 -.543E-01
   0.528E+01 0.315E+01 -.857E+03   -.534E+01 -.319E+01 0.856E+03   0.603E-01 0.371E-01 0.528E+00   -.165E-01 -.633E-02 -.216E-02
   -.523E+01 0.341E+01 -.857E+03   0.530E+01 -.342E+01 0.856E+03   -.599E-01 0.376E-01 0.529E+00   0.813E-02 -.299E-01 -.396E-03
   -.356E-01 -.227E+02 -.853E+03   0.420E-01 0.223E+02 0.853E+03   -.309E-03 0.278E+00 0.598E+00   -.621E-02 0.433E-01 -.543E-01
   0.688E+00 0.376E+01 -.248E+04   -.681E+00 -.376E+01 0.248E+04   -.294E-03 -.246E-02 0.385E+00   -.657E-02 -.141E-03 0.108E+00
   -.133E+02 -.235E+02 -.248E+04   0.146E+02 0.254E+02 0.248E+04   -.132E+01 -.200E+01 -.643E+00   0.531E-01 0.714E-01 0.827E-01
   0.125E+02 -.252E+02 -.248E+04   -.138E+02 0.272E+02 0.248E+04   0.132E+01 -.200E+01 -.649E+00   -.370E-01 0.822E-01 0.790E-01
   -.282E+02 0.388E+01 -.247E+04   0.305E+02 -.376E+01 0.247E+04   -.238E+01 -.144E+00 -.531E+00   0.900E-01 0.137E-01 0.857E-01
   0.305E+02 0.387E+01 -.247E+04   -.328E+02 -.376E+01 0.248E+04   0.238E+01 -.144E+00 -.556E+00   -.848E-01 0.189E-01 0.737E-01
   -.200E+02 0.196E+02 -.248E+04   0.211E+02 -.216E+02 0.248E+04   -.107E+01 0.215E+01 -.647E+00   0.432E-01 -.753E-01 0.784E-01
   0.192E+02 0.213E+02 -.248E+04   -.203E+02 -.234E+02 0.248E+04   0.107E+01 0.215E+01 -.652E+00   -.189E-01 -.821E-01 0.712E-01
   0.714E+00 -.379E+01 -.248E+04   -.693E+00 0.380E+01 0.248E+04   -.617E-03 0.334E-02 0.594E+00   -.207E-01 -.150E-01 0.122E+00
   -.701E+00 0.504E-02 -.856E+03   0.702E+00 -.298E-02 0.853E+03   -.674E-02 0.317E-02 0.281E+01   0.242E-02 0.457E-03 0.784E-02
   0.388E+00 0.549E-01 -.791E+03   -.423E+00 -.547E-01 0.792E+03   0.368E-01 0.259E-02 -.213E+00   0.101E-02 -.121E-02 0.149E-02
   0.257E+03 -.662E-01 -.119E+04   -.321E+03 0.108E+00 0.118E+04   0.638E+02 -.385E-01 0.423E+01   0.266E-02 -.448E-02 0.655E-03
   -.259E+03 0.145E+00 -.118E+04   0.323E+03 -.163E+00 0.119E+04   -.639E+02 0.208E-01 -.337E+01   -.465E-02 -.138E-02 -.378E-03
 -----------------------------------------------------------------------------------------------
   0.921E-01 -.119E-01 0.726E+01   0.000E+00 0.138E-12 0.659E-11   -.119E+00 0.451E-02 -.600E+01   0.214E-01 0.113E-01 -.132E+01
 
 
 POSITION                                       TOTAL-FORCE (eV/Angst)
 -----------------------------------------------------------------------------------
      0.00000      0.00000      5.28038         0.000034     -0.001165     -0.135443
      2.93784      0.00000      5.28038        -0.001091     -0.008909     -0.057980
      5.87568      0.00000      5.28038         0.001512     -0.008761     -0.057986
      1.46892      2.54424      5.28038        -0.007447      0.003509     -0.057986
      4.40676      2.54424      5.28038         0.000601     -0.000150     -0.032686
      7.34459      2.54424      5.28038         0.007502      0.003661     -0.058148
      2.93784      5.08848      5.28038        -0.006724      0.005783     -0.057956
      5.87568      5.08848      5.28038         0.007237      0.005463     -0.057969
      8.81351      5.08848      5.28038        -0.000236     -0.000136     -0.075579
      1.46892      0.84808      7.67911        -0.027591     -0.016572      0.010031
      4.40676      0.84808      7.67911         0.000497     -0.062031     -0.045679
      7.34459      0.84808      7.67911         0.027637     -0.016404      0.009738
      2.93784      3.39232      7.67911        -0.054083      0.030597     -0.045807
      5.87568      3.39232      7.67911         0.054979      0.030567     -0.045981
      8.81351      3.39232      7.67911         0.000151     -0.039580      0.083151
      4.40676      5.93656      7.67911         0.000204      0.032555      0.010429
      7.34459      5.93656      7.67911        -0.034322      0.020049      0.081895
     10.28243      5.93656      7.67911         0.034561      0.020057      0.081909
      8.81351      1.69636     10.07469        -0.000781      0.010432      0.037263
      2.94338      1.69936     10.06127        -0.022166     -0.014475      0.006025
      5.87013      1.69936     10.06127         0.022514     -0.014049      0.006408
     10.27220      4.24631     10.06987        -0.002251      0.002580      0.024394
      4.40676      4.23400     10.06127         0.000675      0.025379      0.002464
      7.35483      4.24631     10.06987         0.002192      0.002527      0.023842
     11.75117      6.78454     10.07469        -0.011095     -0.006296      0.037392
      5.87585      6.78454     10.07469         0.010802     -0.007034      0.037501
      8.81351      6.77283     10.06987         0.000068     -0.005626      0.019901
      0.00000      0.00000     12.49672         0.000426      0.000822     -0.019655
      2.97727      0.06002     12.55884        -0.006173      0.012454      0.052572
      5.83624      0.06002     12.55884         0.006670      0.014280      0.055339
      1.54061      2.54838     12.55884        -0.000650     -0.013873      0.040534
      7.27290      2.54838     12.55884        -0.002748     -0.014354      0.046491
      2.97010      5.02433     12.55884         0.019284      0.002114      0.053747
      5.84341      5.02433     12.55884        -0.019102      0.000595      0.056173
      8.81351      5.08848     12.50791         0.000259     -0.001215      0.069389
      4.40676      2.54424     12.31155        -0.003188      0.005592     -0.089983
      4.36667      2.54449     16.37518         0.002915      0.001511     -0.000880
      3.19202      2.54514     16.29294        -0.000583     -0.001136     -0.003517
      5.54198      2.54410     16.43430        -0.000486      0.001239     -0.003352
 -----------------------------------------------------------------------------------
    total drift:                               -0.005629      0.003850     -0.063472


--------------------------------------------------------------------------------------------------------



  FREE ENERGIE OF THE ION-ELECTRON SYSTEM (eV)
  ---------------------------------------------------
  free  energy   TOTEN  =      -140.80602956 eV

  energy  without entropy=     -140.80602956  energy(sigma->0) =     -140.80602956
 


--------------------------------------------------------------------------------------------------------


    POTLOK:  cpu time    0.0484: real time    0.0484


--------------------------------------------------------------------------------------------------------


 stress matrix after NEB project (eV)
    -23.18844      0.00330      0.02201
      0.00331    -23.18088      0.00539
      0.02201      0.00539      2.02271
  FORCES: max atom, RMS     0.003741    0.000994
  FORCE total and by dimension    0.006210    0.003517
  Stress total and by dimension   32.850414   23.188443
     LOOP+:  cpu time  262.1567: real time  262.1818
 -----------------------------------------------------------------------------
|                                                                             |
|           W    W    AA    RRRRR   N    N  II  N    N   GGGG   !!!           |
|           W    W   A  A   R    R  NN   N  II  NN   N  G    G  !!!           |
|           W    W  A    A  R    R  N N  N  II  N N  N  G       !!!           |
|           W WW W  AAAAAA  RRRRR   N  N N  II  N  N N  G  GGG   !            |
|           WW  WW  A    A  R   R   N   NN  II  N   NN  G    G                |
|           W    W  A    A  R    R  N    N  II  N    N   GGGG   !!!           |
|                                                                             |
|     Tetrahedron method does not include variations of the Fermi             |
|     occupations, so forces and stress will be inaccurate. We suggest        |
|     using a different smearing scheme ISMEAR = 1 or 2 for metals in         |
|     relaxations.                                                            |
|                                                                             |
 -----------------------------------------------------------------------------

    4ORBIT:  cpu time    0.0000: real time    0.0000



 total charge

# of ion       s       p       d       tot
------------------------------------------
    1        0.551   0.237   8.766   9.554
    2        0.541   0.241   8.765   9.548
    3        0.541   0.241   8.765   9.548
    4        0.541   0.241   8.765   9.548
    5        0.544   0.242   8.760   9.546
    6        0.541   0.241   8.765   9.548
    7        0.541   0.241   8.765   9.548
    8        0.541   0.241   8.765   9.548
    9        0.546   0.239   8.766   9.551
   10        0.523   0.308   8.769   9.600
   11        0.518   0.307   8.778   9.604
   12        0.523   0.308   8.769   9.600
   13        0.519   0.307   8.778   9.604
   14        0.519   0.307   8.778   9.604
   15        0.517   0.308   8.772   9.597
   16        0.523   0.308   8.769   9.600
   17        0.517   0.308   8.772   9.597
   18        0.517   0.308   8.772   9.597
   19        0.521   0.299   8.767   9.587
   20        0.571   0.339   8.727   9.636
   21        0.571   0.339   8.727   9.636
   22        0.511   0.305   8.775   9.591
   23        0.571   0.339   8.727   9.637
   24        0.511   0.305   8.775   9.591
   25        0.521   0.300   8.767   9.587
   26        0.521   0.300   8.767   9.588
   27        0.511   0.305   8.775   9.592
   28        0.540   0.233   8.752   9.526
   29        0.601   0.253   8.722   9.575
   30        0.601   0.253   8.722   9.575
   31        0.600   0.251   8.723   9.574
   32        0.600   0.252   8.722   9.574
   33        0.601   0.253   8.722   9.575
   34        0.601   0.253   8.721   9.575
   35        0.538   0.235   8.755   9.527
   36        0.559   0.473   1.749   2.781
   37        0.933   1.801   0.000   2.733
   38        1.608   3.526   0.000   5.133
   39        1.608   3.527   0.000   5.134
--------------------------------------------------
tot         23.759  19.074 308.236 351.069
 
 BZINTS: Fermi energy:    0.424822;  405.000000 electrons
         Band energy:-0.148124E+04;  BLOECHL correction:   -0.031137

 total amount of memory used by VASP MPI-rank0   278553. kBytes
=======================================================================

   base      :      30000. kBytes
   nonlr-proj:      15139. kBytes
   fftplans  :       4808. kBytes
   grid      :      20723. kBytes
   one-center:        606. kBytes
   wavefun   :     207277. kBytes
 
  
  
 General timing and accounting informations for this job:
 ========================================================
  
                  Total CPU time used (sec):      285.337
                            User time (sec):      275.590
                          System time (sec):        9.747
                         Elapsed time (sec):      285.898
  
                   Maximum memory used (kb):      578804.
                   Average memory used (kb):          N/A
  
                          Minor page faults:       101000
                          Major page faults:            0
                 Voluntary context switches:         6893
