 vasp.6.2.0 18Jan21 (build Jun 12 2021 23:27:24) complex                        
  
 executed on             LinuxIFC date 2022.05.27  06:04:26
 running on   28 total cores
 distrk:  each k-point on   28 cores,    1 groups
 distr:  one band on NCORE=   1 cores,   28 groups


--------------------------------------------------------------------------------------------------------


 INCAR:
   ISMEAR = -5
   SIGMA = 0.1
   ISPIN = 1
   EDIFF = 1.d-5
   EDIFFG = -0.01
   NSW = 0
   NELM = 150
   ENCUT = 500
   ISIF = 2
   IBRION = 2
   LREAL = Auto
   ALGO = Fast
   ICHARG = 11
   LORBIT = 10
   LCHARG = .F.
   LWAVE = .F.

 POTCAR:    PAW_PBE Cu 22Jun2005                  
 POTCAR:    PAW_PBE Ni 02Aug2007                  
 POTCAR:    PAW_PBE C 08Apr2002                   
 POTCAR:    PAW_PBE O 08Apr2002                   
 -----------------------------------------------------------------------------
|                                                                             |
|           W    W    AA    RRRRR   N    N  II  N    N   GGGG   !!!           |
|           W    W   A  A   R    R  NN   N  II  NN   N  G    G  !!!           |
|           W    W  A    A  R    R  N N  N  II  N N  N  G       !!!           |
|           W WW W  AAAAAA  RRRRR   N  N N  II  N  N N  G  GGG   !            |
|           WW  WW  A    A  R   R   N   NN  II  N   NN  G    G                |
|           W    W  A    A  R    R  N    N  II  N    N   GGGG   !!!           |
|                                                                             |
|     For optimal performance we recommend to set                             |
|       NCORE = 2 up to number-of-cores-per-socket                            |
|     NCORE specifies how many cores store one orbital (NPAR=cpu/NCORE).      |
|     This setting can greatly improve the performance of VASP for DFT.       |
|     The default, NCORE=1 might be grossly inefficient on modern             |
|     multi-core architectures or massively parallel machines. Do your        |
|     own testing! More info at https://www.vasp.at/wiki/index.php/NCORE      |
|     Unfortunately you need to use the default for GW and RPA                |
|     calculations (for HF NCORE is supported but not extensively tested      |
|     yet).                                                                   |
|                                                                             |
 -----------------------------------------------------------------------------

 POTCAR:    PAW_PBE Cu 22Jun2005                  
   VRHFIN =Cu: d10 p1                                                                               
   LEXCH  = PE                                                                                      
   EATOM  =  1390.9808 eV,  102.2342 Ry                                                             
                                                                                                    
   TITEL  = PAW_PBE Cu 22Jun2005                                                                    
   LULTRA =        F    use ultrasoft PP ?                                                          
   IUNSCR =        1    unscreen: 0-lin 1-nonlin 2-no                                               
   RPACOR =    2.000    partial core radius                                                         
   POMASS =   63.546; ZVAL   =   11.000    mass and valenz                                          
   RCORE  =    2.300    outmost cutoff radius                                                       
   RWIGS  =    2.200; RWIGS  =    1.164    wigner-seitz radius (au A)                               
   ENMAX  =  295.446; ENMIN  =  221.585 eV                                                          
   ICORE  =        3    local potential                                                             
   LCOR   =        T    correct aug charges                                                         
   LPAW   =        T    paw PP                                                                      
   EAUG   =  586.980                                                                                
   DEXC   =    0.000                                                                                
   RMAX   =    2.344    core radius for proj-oper                                                   
   RAUG   =    1.300    factor for augmentation sphere                                              
   RDEP   =    2.302    radius for radial grids                                                     
   RDEPT  =    1.771    core radius for aug-charge                                                  
                                                                                                    
   Atomic configuration                                                                             
    9 entries                                                                                       
     n  l   j            E        occ.                                                              
     1  0  0.50     -8850.2468   2.0000                                                             
     2  0  0.50     -1062.3498   2.0000                                                             
     2  1  1.50      -916.8226   6.0000                                                             
     3  0  0.50      -114.6929   2.0000                                                             
     3  1  1.50       -72.1325   6.0000                                                             
     3  2  2.50        -5.0394  10.0000                                                             
     4  0  0.50        -4.6097   1.0000                                                             
     4  1  0.50        -4.0817   0.0000                                                             
     4  3  2.50        -1.3606   0.0000                                                             
   Description                                                                                      
     l       E           TYP  RCUT    TYP  RCUT                                                     
     2     -5.0393973     23  2.200                                                                 
     2     10.8846608     23  2.200                                                                 
     0     -4.6097109     23  2.200                                                                 
     0      8.2520465     23  2.200                                                                 
     1     -2.7211652     23  2.200                                                                 
     1     21.7055443     23  2.200                                                                 
     3      2.7211652     23  2.300                                                                 
  local pseudopotential read in
  partial core-charges read in
  partial kinetic energy density read in
  atomic valenz-charges read in
  non local Contribution for L=           2  read in
    real space projection operators read in
  non local Contribution for L=           2  read in
    real space projection operators read in
  non local Contribution for L=           0  read in
    real space projection operators read in
  non local Contribution for L=           0  read in
    real space projection operators read in
  non local Contribution for L=           1  read in
    real space projection operators read in
  non local Contribution for L=           1  read in
    real space projection operators read in
    PAW grid and wavefunctions read in
 
   number of l-projection  operators is LMAX  =           6
   number of lm-projection operators is LMMAX =          18
 
 POTCAR:    PAW_PBE Ni 02Aug2007                  
   VRHFIN =Ni:                                                                                      
   LEXCH  = PE                                                                                      
   EATOM  =  1077.6739 eV,   79.2068 Ry                                                             
                                                                                                    
   TITEL  = PAW_PBE Ni 02Aug2007                                                                    
   LULTRA =        F    use ultrasoft PP ?                                                          
   IUNSCR =        1    unscreen: 0-lin 1-nonlin 2-no                                               
   RPACOR =    2.000    partial core radius                                                         
   POMASS =   58.690; ZVAL   =   10.000    mass and valenz                                          
   RCORE  =    2.300    outmost cutoff radius                                                       
   RWIGS  =    2.430; RWIGS  =    1.286    wigner-seitz radius (au A)                               
   ENMAX  =  269.532; ENMIN  =  202.149 eV                                                          
   RCLOC  =    1.201    cutoff for local pot                                                        
   LCOR   =        T    correct aug charges                                                         
   LPAW   =        T    paw PP                                                                      
   EAUG   =  544.565                                                                                
   DEXC   =    0.000                                                                                
   RMAX   =    2.357    core radius for proj-oper                                                   
   RAUG   =    1.300    factor for augmentation sphere                                              
   RDEP   =    2.390    radius for radial grids                                                     
   RDEPT  =    1.838    core radius for aug-charge                                                  
                                                                                                    
   Atomic configuration                                                                             
    9 entries                                                                                       
     n  l   j            E        occ.                                                              
     1  0  0.50     -8206.4253   2.0000                                                             
     2  0  0.50      -976.1748   2.0000                                                             
     2  1  1.50      -839.0571   6.0000                                                             
     3  0  0.50      -105.9991   2.0000                                                             
     3  1  1.50       -66.4603   6.0000                                                             
     3  2  2.50        -4.6458   9.0000                                                             
     4  0  0.50        -4.4926   1.0000                                                             
     4  1  1.50        -4.0817   0.0000                                                             
     4  3  2.50        -1.3606   0.0000                                                             
   Description                                                                                      
     l       E           TYP  RCUT    TYP  RCUT                                                     
     2     -4.6457903     23  2.300                                                                 
     2     -6.0063729     23  2.300                                                                 
     0     -4.4925590     23  2.300                                                                 
     0      5.0102601     23  2.300                                                                 
     1     -2.7211652     23  2.300                                                                 
     1     16.5183231     23  2.300                                                                 
  local pseudopotential read in
  partial core-charges read in
  partial kinetic energy density read in
  atomic valenz-charges read in
  non local Contribution for L=           2  read in
    real space projection operators read in
  non local Contribution for L=           2  read in
    real space projection operators read in
  non local Contribution for L=           0  read in
    real space projection operators read in
  non local Contribution for L=           0  read in
    real space projection operators read in
  non local Contribution for L=           1  read in
    real space projection operators read in
  non local Contribution for L=           1  read in
    real space projection operators read in
    PAW grid and wavefunctions read in
 
   number of l-projection  operators is LMAX  =           6
   number of lm-projection operators is LMMAX =          18
 
 POTCAR:    PAW_PBE C 08Apr2002                   
   VRHFIN =C: s2p2                                                                                  
   LEXCH  = PE                                                                                      
   EATOM  =   147.1560 eV,   10.8157 Ry                                                             
                                                                                                    
   TITEL  = PAW_PBE C 08Apr2002                                                                     
   LULTRA =        F    use ultrasoft PP ?                                                          
   IUNSCR =        1    unscreen: 0-lin 1-nonlin 2-no                                               
   RPACOR =    1.200    partial core radius                                                         
   POMASS =   12.011; ZVAL   =    4.000    mass and valenz                                          
   RCORE  =    1.500    outmost cutoff radius                                                       
   RWIGS  =    1.630; RWIGS  =    0.863    wigner-seitz radius (au A)                               
   ENMAX  =  400.000; ENMIN  =  300.000 eV                                                          
   ICORE  =        2    local potential                                                             
   LCOR   =        T    correct aug charges                                                         
   LPAW   =        T    paw PP                                                                      
   EAUG   =  644.873                                                                                
   DEXC   =    0.000                                                                                
   RMAX   =    1.529    core radius for proj-oper                                                   
   RAUG   =    1.300    factor for augmentation sphere                                              
   RDEP   =    1.501    radius for radial grids                                                     
   RDEPT  =    1.300    core radius for aug-charge                                                  
                                                                                                    
   Atomic configuration                                                                             
    4 entries                                                                                       
     n  l   j            E        occ.                                                              
     1  0  0.50      -273.3789   2.0000                                                             
     2  0  0.50       -13.7508   2.0000                                                             
     2  1  0.50        -5.2854   2.0000                                                             
     3  2  1.50        -5.4423   0.0000                                                             
   Description                                                                                      
     l       E           TYP  RCUT    TYP  RCUT                                                     
     0    -13.7508458     23  1.200                                                                 
     0     -8.2022199     23  1.200                                                                 
     1     -5.2854383     23  1.500                                                                 
     1     34.0145650     23  1.500                                                                 
     2     -5.4423304      7  1.500                                                                 
  local pseudopotential read in
  partial core-charges read in
  partial kinetic energy density read in
  atomic valenz-charges read in
  non local Contribution for L=           0  read in
    real space projection operators read in
  non local Contribution for L=           0  read in
    real space projection operators read in
  non local Contribution for L=           1  read in
    real space projection operators read in
  non local Contribution for L=           1  read in
    real space projection operators read in
    PAW grid and wavefunctions read in
 
   number of l-projection  operators is LMAX  =           4
   number of lm-projection operators is LMMAX =           8
 
 POTCAR:    PAW_PBE O 08Apr2002                   
   VRHFIN =O: s2p4                                                                                  
   LEXCH  = PE                                                                                      
   EATOM  =   432.3788 eV,   31.7789 Ry                                                             
                                                                                                    
   TITEL  = PAW_PBE O 08Apr2002                                                                     
   LULTRA =        F    use ultrasoft PP ?                                                          
   IUNSCR =        1    unscreen: 0-lin 1-nonlin 2-no                                               
   RPACOR =    1.200    partial core radius                                                         
   POMASS =   16.000; ZVAL   =    6.000    mass and valenz                                          
   RCORE  =    1.520    outmost cutoff radius                                                       
   RWIGS  =    1.550; RWIGS  =    0.820    wigner-seitz radius (au A)                               
   ENMAX  =  400.000; ENMIN  =  300.000 eV                                                          
   ICORE  =        2    local potential                                                             
   LCOR   =        T    correct aug charges                                                         
   LPAW   =        T    paw PP                                                                      
   EAUG   =  605.392                                                                                
   DEXC   =    0.000                                                                                
   RMAX   =    1.553    core radius for proj-oper                                                   
   RAUG   =    1.300    factor for augmentation sphere                                              
   RDEP   =    1.550    radius for radial grids                                                     
   RDEPT  =    1.329    core radius for aug-charge                                                  
                                                                                                    
   Atomic configuration                                                                             
    4 entries                                                                                       
     n  l   j            E        occ.                                                              
     1  0  0.50      -514.6923   2.0000                                                             
     2  0  0.50       -23.9615   2.0000                                                             
     2  1  0.50        -9.0305   4.0000                                                             
     3  2  1.50        -9.5241   0.0000                                                             
   Description                                                                                      
     l       E           TYP  RCUT    TYP  RCUT                                                     
     0    -23.9615318     23  1.200                                                                 
     0     -9.5240782     23  1.200                                                                 
     1     -9.0304911     23  1.520                                                                 
     1      8.1634956     23  1.520                                                                 
     2     -9.5240782      7  1.500                                                                 
  local pseudopotential read in
  partial core-charges read in
  partial kinetic energy density read in
  kinetic energy density of atom read in
  atomic valenz-charges read in
  non local Contribution for L=           0  read in
    real space projection operators read in
  non local Contribution for L=           0  read in
    real space projection operators read in
  non local Contribution for L=           1  read in
    real space projection operators read in
  non local Contribution for L=           1  read in
    real space projection operators read in
    PAW grid and wavefunctions read in
 
   number of l-projection  operators is LMAX  =           4
   number of lm-projection operators is LMMAX =           8
 
 Optimization of the real space projectors (new method)

 maximal supplied QI-value         = 16.25
 optimisation between [QCUT,QGAM] = [ 11.38, 22.75] = [ 36.24,144.96] Ry 
 Optimized for a Real-space Cutoff    1.52 Angstroem

   l    n(q)    QCUT    max X(q) W(low)/X(q) W(high)/X(q)  e(spline) 
   2      9    11.376     4.610    0.21E-03    0.10E-03    0.26E-06
   2      9    11.376     8.522    0.33E-03    0.16E-03    0.37E-06
   0     10    11.376    51.609    0.62E-04    0.20E-04    0.13E-06
   0     10    11.376    27.747    0.54E-04    0.20E-04    0.13E-06
   1     10    11.376    20.408    0.13E-04    0.99E-04    0.19E-06
   1     10    11.376    13.425    0.12E-04    0.87E-04    0.17E-06
 Optimization of the real space projectors (new method)

 maximal supplied QI-value         = 16.25
 optimisation between [QCUT,QGAM] = [ 11.38, 22.75] = [ 36.24,144.96] Ry 
 Optimized for a Real-space Cutoff    1.39 Angstroem

   l    n(q)    QCUT    max X(q) W(low)/X(q) W(high)/X(q)  e(spline) 
   2      8    11.376    60.317    0.19E-03    0.33E-04    0.13E-06
   2      8    11.376    55.921    0.20E-03    0.34E-04    0.14E-06
   0      9    11.376    51.690    0.82E-04    0.12E-03    0.20E-06
   0      9    11.376    30.015    0.74E-04    0.11E-03    0.18E-06
   1      9    11.376    18.849    0.39E-03    0.12E-03    0.13E-06
   1      9    11.376    14.624    0.33E-03    0.10E-03    0.11E-06
 Optimization of the real space projectors (new method)

 maximal supplied QI-value         = 25.13
 optimisation between [QCUT,QGAM] = [ 11.31, 22.87] = [ 35.82,146.48] Ry 
 Optimized for a Real-space Cutoff    1.00 Angstroem

   l    n(q)    QCUT    max X(q) W(low)/X(q) W(high)/X(q)  e(spline) 
   0      7    11.310   115.676    0.43E-03    0.13E-02    0.19E-06
   0      7    11.310    87.132    0.43E-03    0.13E-02    0.18E-06
   1      6    11.310     4.429    0.42E-03    0.74E-03    0.11E-06
   1      6    11.310     2.733    0.34E-03    0.55E-03    0.92E-07
 Optimization of the real space projectors (new method)

 maximal supplied QI-value         = 24.76
 optimisation between [QCUT,QGAM] = [ 11.39, 22.77] = [ 36.31,145.25] Ry 
 Optimized for a Real-space Cutoff    1.00 Angstroem

   l    n(q)    QCUT    max X(q) W(low)/X(q) W(high)/X(q)  e(spline) 
   0      7    11.387    20.381    0.39E-03    0.13E-02    0.15E-06
   0      7    11.387    15.268    0.42E-03    0.14E-02    0.17E-06
   1      6    11.387     5.964    0.41E-03    0.11E-02    0.17E-06
   1      6    11.387     5.382    0.39E-03    0.87E-03    0.15E-06
  PAW_PBE Cu 22Jun2005                  :
 energy of atom  1       EATOM=-1390.9808
 kinetic energy error for atom=    0.0043 (will be added to EATOM!!)
  PAW_PBE Ni 02Aug2007                  :
 energy of atom  2       EATOM=-1077.6739
 kinetic energy error for atom=    0.0030 (will be added to EATOM!!)
  PAW_PBE C 08Apr2002                   :
 energy of atom  3       EATOM= -147.1560
 kinetic energy error for atom=    0.0076 (will be added to EATOM!!)
  PAW_PBE O 08Apr2002                   :
 energy of atom  4       EATOM= -432.3788
 kinetic energy error for atom=    0.0224 (will be added to EATOM!!)
 
 
 POSCAR: Cu-Ni-CO
  positions in direct lattice
  velocities in cartesian coordinates
 exchange correlation table for  LEXCH =        8
   RHO(1)=    0.500       N(1)  =     2000
   RHO(2)=  100.500       N(2)  =     4000

 VTST: version 3.2, (02/03/18)

 CHAIN: initializing optimizer
 
 OPT: Using VASP Conjugate-Gradient optimizer
 CHAIN: Read ICHAIN            0
 
 POSCAR: Cu-Ni-CO
  positions in direct lattice
  velocities in cartesian coordinates
 


--------------------------------------------------------------------------------------------------------


 ion  position               nearest neighbor table
   1  0.000  0.000  0.252-   7 2.57   3 2.57   4 2.57   2 2.57   6 2.57   8 2.57  12 2.57  10 2.57
                            16 2.57
   2  0.333  0.000  0.252-   8 2.57   9 2.57   5 2.57   1 2.57   3 2.57  11 2.57   4 2.57  10 2.57
                            17 2.57
   3  0.667  0.000  0.252-   1 2.57   7 2.57   6 2.57   9 2.57   2 2.57  12 2.57   5 2.57  18 2.57
                            11 2.57
   4  0.000  0.333  0.252-   5 2.57   6 2.57   1 2.57   7 2.57   2 2.57  13 2.57   9 2.57  10 2.57
                            15 2.57
   5  0.333  0.333  0.252-   4 2.57   2 2.57   7 2.57  13 2.57   8 2.57   6 2.57   3 2.57  11 2.57
                            14 2.57
   6  0.667  0.333  0.252-   4 2.57   9 2.57  15 2.57   3 2.57   1 2.57   8 2.57  14 2.57   5 2.57
                            12 2.57
   7  0.000  0.667  0.252-   1 2.57   3 2.57  16 2.57  18 2.57   4 2.57   5 2.57   8 2.57   9 2.57
                            13 2.57
   8  0.333  0.667  0.252-   9 2.57   2 2.57  17 2.57   6 2.57   1 2.57   7 2.57   5 2.57  14 2.57
                            16 2.57
   9  0.667  0.667  0.252-   8 2.57   6 2.57   2 2.57  17 2.57   3 2.57   7 2.57   4 2.57  15 2.57
                            18 2.57
  10  0.111  0.111  0.351-  20 2.55  26 2.56  19 2.56  11 2.57  12 2.57  13 2.57   1 2.57   2 2.57
                             4 2.57  15 2.57  16 2.57  17 2.57
  11  0.444  0.111  0.351-  20 2.55  21 2.55  27 2.56  10 2.57  13 2.57   2 2.57  17 2.57  14 2.57
                            12 2.57   5 2.57   3 2.57  18 2.57
  12  0.778  0.111  0.351-  21 2.55  19 2.56  25 2.56  15 2.57  10 2.57  14 2.57  18 2.57   3 2.57
                             1 2.57  16 2.57  11 2.57   6 2.57
  13  0.111  0.444  0.351-  23 2.55  20 2.55  22 2.56  16 2.57  18 2.57  10 2.57  11 2.57  14 2.57
                             5 2.57   4 2.57   7 2.57  15 2.57
  14  0.444  0.444  0.351-  21 2.55  23 2.55  24 2.56  15 2.57  17 2.57  12 2.57  16 2.57  13 2.57
                            11 2.57   6 2.57   8 2.57   5 2.57
  15  0.778  0.444  0.351-  24 2.55  22 2.55  19 2.56  14 2.57  17 2.57  12 2.57   6 2.57  18 2.57
                            10 2.57   9 2.57  13 2.57   4 2.57
  16  0.111  0.778  0.351-  23 2.55  25 2.56  26 2.56  18 2.57  13 2.57   7 2.57  14 2.57  17 2.57
                            12 2.57  10 2.57   8 2.57   1 2.57
  17  0.444  0.778  0.351-  27 2.55  24 2.55  26 2.56  14 2.57  15 2.57   8 2.57   9 2.57  11 2.57
                            16 2.57  18 2.57  10 2.57   2 2.57
  18  0.778  0.778  0.351-  22 2.55  27 2.55  25 2.56  16 2.57  13 2.57   7 2.57  15 2.57  12 2.57
                            17 2.57   9 2.57   3 2.57  11 2.57
  19  0.889  0.223  0.449-  28 2.54  32 2.55  31 2.55  15 2.56  12 2.56  10 2.56  22 2.56  24 2.56
                            21 2.57  20 2.57  25 2.57  26 2.57
  20  0.222  0.222  0.448-  36 2.48  29 2.54  31 2.54  10 2.55  11 2.55  13 2.55  26 2.57  19 2.57
                            27 2.57  22 2.57  23 2.57  21 2.57
  21  0.556  0.222  0.448-  36 2.48  32 2.54  30 2.54  12 2.55  14 2.55  11 2.55  19 2.57  25 2.57
                            24 2.57  27 2.57  20 2.57  23 2.57
  22  0.889  0.556  0.449-  35 2.54  31 2.55  33 2.55  18 2.55  15 2.55  13 2.56  19 2.56  25 2.56
                            24 2.57  27 2.57  23 2.57  20 2.57
  23  0.222  0.556  0.448-  36 2.48  33 2.54  34 2.54  16 2.55  13 2.55  14 2.55  25 2.57  26 2.57
                            22 2.57  24 2.57  20 2.57  21 2.57
  24  0.556  0.556  0.449-  35 2.54  32 2.55  34 2.55  15 2.55  17 2.55  14 2.56  19 2.56  26 2.56
                            22 2.57  27 2.57  21 2.57  23 2.57
  25  0.889  0.889  0.449-  28 2.54  33 2.55  30 2.55  18 2.56  16 2.56  12 2.56  22 2.56  27 2.56
                            21 2.57  23 2.57  19 2.57  26 2.57
  26  0.223  0.889  0.449-  28 2.54  29 2.55  34 2.55  17 2.56  10 2.56  16 2.56  27 2.56  24 2.56
                            20 2.57  23 2.57  25 2.57  19 2.57
  27  0.556  0.889  0.449-  35 2.54  29 2.55  30 2.55  17 2.55  18 2.55  11 2.56  26 2.56  25 2.56
                            24 2.57  22 2.57  20 2.57  21 2.57
  28  0.000  0.000  0.546-  25 2.54  19 2.54  26 2.54  33 2.57  30 2.57  31 2.57  29 2.57  32 2.57
                            34 2.57
  29  0.333  0.002  0.546-  20 2.54  27 2.55  31 2.55  36 2.55  30 2.55  26 2.55  28 2.57  35 2.57
                            34 2.60
  30  0.665  0.002  0.546-  21 2.54  27 2.55  32 2.55  36 2.55  29 2.55  25 2.55  28 2.57  35 2.57
                            33 2.60
  31  0.002  0.333  0.546-  20 2.54  22 2.55  29 2.55  36 2.55  33 2.55  19 2.55  28 2.57  35 2.57
                            32 2.60
  32  0.665  0.333  0.546-  21 2.54  24 2.55  30 2.55  36 2.55  34 2.55  19 2.55  28 2.57  35 2.57
                            31 2.60
  33  0.002  0.665  0.546-  23 2.54  22 2.55  34 2.55  36 2.55  31 2.55  25 2.55  28 2.57  35 2.57
                            30 2.60
  34  0.333  0.665  0.546-  23 2.54  24 2.55  33 2.55  36 2.55  32 2.55  26 2.55  28 2.57  35 2.57
                            29 2.60
  35  0.667  0.667  0.546-  24 2.54  27 2.54  22 2.54  34 2.57  32 2.57  29 2.57  30 2.57  33 2.57
                            31 2.57
  36  0.333  0.333  0.542-  37 1.75  23 2.48  20 2.48  21 2.48  31 2.55  29 2.55  33 2.55  34 2.55
                            32 2.55  30 2.55
  37  0.333  0.333  0.624-  38 1.17  36 1.75
  38  0.333  0.333  0.679-  37 1.17
 
  LATTYP: Found a hexagonal cell.
 ALAT       =     7.6967864036
 C/A-ratio  =     2.7653617908
  
  Lattice vectors:
  
 A1 = (  -3.8483927580,  -6.6656128093,   0.0000000000)
 A2 = (   7.6967864037,   0.0000000000,   0.0000000000)
 A3 = (   0.0000000000,   0.0000000000,  21.2843990326)


Analysis of symmetry for initial positions (statically):
=====================================================================
 Subroutine PRICEL returns:
 Original cell was already a primitive cell.
 

 Routine SETGRP: Setting up the symmetry group for a 
 hexagonal supercell.


 Subroutine GETGRP returns: Found  6 space group operations
 (whereof  6 operations were pure point group operations)
 out of a pool of 24 trial point group operations.


The static configuration has the point symmetry C_3v.


Analysis of symmetry for dynamics (positions and initial velocities):
=====================================================================
 Subroutine PRICEL returns:
 Original cell was already a primitive cell.
 

 Routine SETGRP: Setting up the symmetry group for a 
 hexagonal supercell.


 Subroutine GETGRP returns: Found  6 space group operations
 (whereof  6 operations were pure point group operations)
 out of a pool of 24 trial point group operations.


The dynamic configuration has the point symmetry C_3v.


Analysis of constrained symmetry for selective dynamics:
=====================================================================
 Subroutine PRICEL returns:
 Original cell was already a primitive cell.
 

 Routine SETGRP: Setting up the symmetry group for a 
 hexagonal supercell.


 Subroutine GETGRP returns: Found  6 space group operations
 (whereof  6 operations were pure point group operations)
 out of a pool of 24 trial point group operations.


The constrained configuration has the point symmetry C_3v.


 Subroutine INISYM returns: Found  6 space group operations
 (whereof  6 operations are pure point group operations),
 and found     1 'primitive' translations


----------------------------------------------------------------------------------------

                                     Primitive cell                                     

  volume of cell :    1091.9705

  direct lattice vectors                    reciprocal lattice vectors
     7.696786404  0.000000000  0.000000000     0.129924354 -0.075011849  0.000000000
     3.848392758  6.665612809  0.000000000     0.000000000  0.150023716  0.000000000
     0.000000000  0.000000000 21.284399033     0.000000000  0.000000000  0.046982769

  length of vectors
     7.696786404  7.696786404 21.284399033     0.150023716  0.150023716  0.046982769

  position of ions in fractional coordinates (direct lattice)
     0.000000000  0.000000000  0.252370745
     0.333333343  0.000000000  0.252370745
     0.666666687  0.000000000  0.252370745
     1.000000000  0.333333343  0.252370745
     0.333333313  0.333333343  0.252370745
     0.666666687  0.333333343  0.252370745
     1.000000000  0.666666687  0.252370745
     0.333333373  0.666666687  0.252370745
     0.666666627  0.666666687  0.252370745
     0.111111119  0.111111112  0.350790262
     0.444444418  0.111111112  0.350790262
     0.777777791  0.111111112  0.350790262
     0.111111119  0.444444448  0.350790262
     0.444444478  0.444444448  0.350790262
     0.777777731  0.444444448  0.350790262
     0.111111112  0.777777731  0.350790262
     0.444444478  0.777777731  0.350790262
     0.777777851  0.777777731  0.350790262
     0.888717636  0.222564743  0.448718893
     0.222205667  0.222205652  0.448344711
     0.555588727  0.222205652  0.448344711
     0.888848763  0.555575588  0.448595816
     0.222205637  0.555588667  0.448344711
     0.555575648  0.555575588  0.448595816
     0.888717636  0.888717636  0.448718893
     0.222564758  0.888717636  0.448718893
     0.555575588  0.888848763  0.448595816
     0.000000000  0.000000000  0.545716777
     0.333207055  0.002169920  0.545941940
     0.664623055  0.002169920  0.545941940
     0.002169920  0.333207055  0.545941940
     0.664623055  0.333207055  0.545941940
     0.002169920  0.664623055  0.545941940
     0.333207085  0.664623055  0.545941940
     0.666666627  0.666666687  0.545643740
     0.333333313  0.333333343  0.541955855
     0.333333313  0.333333343  0.624188671
     0.333333313  0.333333343  0.678991848

  ion indices of the primitive-cell ions
   primitive index   ion index
                 1           1
                 2           2
                 3           3
                 4           4
                 5           5
                 6           6
                 7           7
                 8           8
                 9           9
                10          10
                11          11
                12          12
                13          13
                14          14
                15          15
                16          16
                17          17
                18          18
                19          19
                20          20
                21          21
                22          22
                23          23
                24          24
                25          25
                26          26
                27          27
                28          28
                29          29
                30          30
                31          31
                32          32
                33          33
                34          34
                35          35
                36          36
                37          37
                38          38

----------------------------------------------------------------------------------------

 
 
 KPOINTS: Automatic mesh                          

Automatic generation of k-mesh.
 Grid dimensions read from file:
 generate k-points for:    8    8    1

 Generating k-lattice:

  Cartesian coordinates                     Fractional coordinates (reciprocal lattice)
     0.016240544 -0.009376481  0.000000000     0.125000000 -0.000000000  0.000000000
     0.000000000  0.018752964  0.000000000     0.000000000  0.125000000  0.000000000
     0.000000000  0.000000000  0.046982769     0.000000000  0.000000000  1.000000000

  Length of vectors
     0.018752964  0.018752964  0.046982769

  Shift w.r.t. Gamma in fractional coordinates (k-lattice)
     0.000000000  0.000000000  0.000000000

 TETIRR: Found     36 inequivalent tetrahedra from      384
 
 Subroutine IBZKPT returns following result:
 ===========================================
 
 Found     10 irreducible k-points:
 
 Following reciprocal coordinates:
            Coordinates               Weight
  0.000000  0.000000  0.000000      1.000000
  0.125000 -0.000000  0.000000      6.000000
  0.250000 -0.000000  0.000000      6.000000
  0.375000 -0.000000  0.000000      6.000000
  0.500000 -0.000000  0.000000      3.000000
  0.250000  0.125000  0.000000      6.000000
  0.375000  0.125000  0.000000     12.000000
  0.500000  0.125000  0.000000     12.000000
  0.500000  0.250000  0.000000      6.000000
 -0.375000  0.250000  0.000000      6.000000
 
 Following cartesian coordinates:
            Coordinates               Weight
  0.000000  0.000000  0.000000      1.000000
  0.016241 -0.009376  0.000000      6.000000
  0.032481 -0.018753  0.000000      6.000000
  0.048722 -0.028129  0.000000      6.000000
  0.064962 -0.037506  0.000000      3.000000
  0.032481  0.000000  0.000000      6.000000
  0.048722 -0.009376  0.000000     12.000000
  0.064962 -0.018753  0.000000     12.000000
  0.064962  0.000000  0.000000      6.000000
 -0.048722  0.065635  0.000000      6.000000
 


--------------------------------------------------------------------------------------------------------




 Dimension of arrays:
   k-points           NKPTS =     10   k-points in BZ     NKDIM =     10   number of bands    NBANDS=    252
   number of dos      NEDOS =    301   number of ions     NIONS =     38
   non local maximal  LDIM  =      6   non local SUM 2l+1 LMDIM =     18
   total plane-waves  NPLWV = 211680
   max r-space proj   IRMAX =   2893   max aug-charges    IRDMAX=   6482
   dimension x,y,z NGX =    42 NGY =   42 NGZ =  120
   dimension x,y,z NGXF=    84 NGYF=   84 NGZF=  240
   support grid    NGXF=    84 NGYF=   84 NGZF=  240
   ions per type =              35   1   1   1
   NGX,Y,Z   is equivalent  to a cutoff of   9.07,  9.07,  9.37 a.u.
   NGXF,Y,Z  is equivalent  to a cutoff of  18.14, 18.14, 18.75 a.u.

 SYSTEM =  unknown system                          
 POSCAR =  Cu-Ni-CO                                

 Startparameter for this run:
   NWRITE =      2    write-flag & timer
   PREC   = normal    normal or accurate (medium, high low for compatibility)
   ISTART =      0    job   : 0-new  1-cont  2-samecut
   ICHARG =     11    charge: 1-file 2-atom 10-const
   ISPIN  =      1    spin polarized calculation?
   LNONCOLLINEAR =      F non collinear calculations
   LSORBIT =      F    spin-orbit coupling
   INIWAV =      1    electr: 0-lowe 1-rand  2-diag
   LASPH  =      F    aspherical Exc in radial PAW
   METAGGA=      F    non-selfconsistent MetaGGA calc.

 Electronic Relaxation 1
   ENCUT  =  500.0 eV  36.75 Ry    6.06 a.u.  14.03 14.03 38.81*2*pi/ulx,y,z
   ENINI  =  500.0     initial cutoff
   ENAUG  =  644.9 eV  augmentation charge cutoff
   NELM   =    150;   NELMIN=  2; NELMDL= -5     # of ELM steps 
   EDIFF  = 0.1E-04   stopping-criterion for ELM
   LREAL  =      T    real-space projection
   NLSPLINE    = F    spline interpolate recip. space projectors
   LCOMPAT=      F    compatible to vasp.4.4
   GGA_COMPAT  = T    GGA compatible to vasp.4.4-vasp.4.6
   LMAXPAW     = -100 max onsite density
   LMAXMIX     =    2 max onsite mixed and CHGCAR
   VOSKOWN=      0    Vosko Wilk Nusair interpolation
   ROPT   =   -0.00050  -0.00050  -0.00050  -0.00050
 Ionic relaxation
   EDIFFG = -.1E-01   stopping-criterion for IOM
   NSW    =      0    number of steps for IOM
   NBLOCK =      1;   KBLOCK =      1    inner block; outer block 
   IBRION =     -1    ionic relax: 0-MD 1-quasi-New 2-CG
   NFREE  =      1    steps in history (QN), initial steepest desc. (CG)
   ISIF   =      2    stress and relaxation
   IWAVPR =     10    prediction:  0-non 1-charg 2-wave 3-comb
   ISYM   =      2    0-nonsym 1-usesym 2-fastsym
   LCORR  =      T    Harris-Foulkes like correction to forces

   POTIM  = 0.5000    time-step for ionic-motion
   TEIN   =    0.0    initial temperature
   TEBEG  =    0.0;   TEEND  =   0.0 temperature during run
   SMASS  =  -3.00    Nose mass-parameter (am)
   estimated Nose-frequenzy (Omega)   =  0.10E-29 period in steps = 0.13E+47 mass=  -0.135E-26a.u.
   SCALEE = 1.0000    scale energy and forces
   NPACO  =    256;   APACO  = 16.0  distance and # of slots for P.C.
   PSTRESS=    0.0 pullay stress

  Mass of Ions in am
   POMASS =  63.55 58.69 12.01 16.00
  Ionic Valenz
   ZVAL   =  11.00 10.00  4.00  6.00
  Atomic Wigner-Seitz radii
   RWIGS  =  -1.00 -1.00 -1.00 -1.00
  virtual crystal weights 
   VCA    =   1.00  1.00  1.00  1.00
   NELECT =     405.0000    total number of electrons
   NUPDOWN=      -1.0000    fix difference up-down

 DOS related values:
   EMIN   =  10.00;   EMAX   =-10.00  energy-range for DOS
   EFERMI =   0.00
   ISMEAR =    -5;   SIGMA  =   0.10  broadening in eV -4-tet -1-fermi 0-gaus

 Electronic relaxation 2 (details)
   IALGO  =     68    algorithm
   LDIAG  =      T    sub-space diagonalisation (order eigenvalues)
   LSUBROT=      F    optimize rotation matrix (better conditioning)
   TURBO    =      0    0=normal 1=particle mesh
   IRESTART =      0    0=no restart 2=restart with 2 vectors
   NREBOOT  =      0    no. of reboots
   NMIN     =      0    reboot dimension
   EREF     =   0.00    reference energy to select bands
   IMIX   =      4    mixing-type and parameters
     AMIX     =   0.40;   BMIX     =  1.00
     AMIX_MAG =   1.60;   BMIX_MAG =  1.00
     AMIN     =   0.10
     WC   =   100.;   INIMIX=   1;  MIXPRE=   1;  MAXMIX= -45

 Intra band minimization:
   WEIMIN = 0.0000     energy-eigenvalue tresh-hold
   EBREAK =  0.99E-08  absolut break condition
   DEPER  =   0.30     relativ break condition  

   TIME   =   0.40     timestep for ELM

  volume/ion in A,a.u.               =      28.74       193.92
  Fermi-wavevector in a.u.,A,eV,Ry     =   1.176223  2.222738 18.823656  1.383500
  Thomas-Fermi vector in A             =   2.312590
 
 Write flags
   LWAVE        =      F    write WAVECAR
   LDOWNSAMPLE  =      F    k-point downsampling of WAVECAR
   LCHARG       =      F    write CHGCAR
   LVTOT        =      F    write LOCPOT, total local potential
   LVHAR        =      F    write LOCPOT, Hartree potential only
   LELF         =      F    write electronic localiz. function (ELF)
   LORBIT       =     10    0 simple, 1 ext, 2 COOP (PROOUT), +10 PAW based schemes


 Dipole corrections
   LMONO  =      F    monopole corrections only (constant potential shift)
   LDIPOL =      F    correct potential (dipole corrections)
   IDIPOL =      0    1-x, 2-y, 3-z, 4-all directions 
   EPSILON=  1.0000000 bulk dielectric constant

 Exchange correlation treatment:
   GGA     =    --    GGA type
   LEXCH   =     8    internal setting for exchange type
   VOSKOWN=      0    Vosko Wilk Nusair interpolation
   LHFCALC =     F    Hartree Fock is set to
   LHFONE  =     F    Hartree Fock one center treatment
   AEXX    =    0.0000 exact exchange contribution

 Linear response parameters
   LEPSILON=     F    determine dielectric tensor
   LRPA    =     F    only Hartree local field effects (RPA)
   LNABLA  =     F    use nabla operator in PAW spheres
   LVEL    =     F    velocity operator in full k-point grid
   LINTERFAST=   F  fast interpolation
   KINTER  =     0    interpolate to denser k-point grid
   CSHIFT  =0.1000    complex shift for real part using Kramers Kronig
   OMEGAMAX=  -1.0    maximum frequency
   DEG_THRESHOLD= 0.2000000E-02 threshold for treating states as degnerate
   RTIME   =   -0.100 relaxation time in fs
  (WPLASMAI=    0.000 imaginary part of plasma frequency in eV, 0.658/RTIME)
   DFIELD  = 0.0000000 0.0000000 0.0000000 field for delta impulse in time
 
 Orbital magnetization related:
   ORBITALMAG=     F  switch on orbital magnetization
   LCHIMAG   =     F  perturbation theory with respect to B field
   DQ        =  0.001000  dq finite difference perturbation B field
   LLRAUG    =     F  two centre corrections for induced B field



--------------------------------------------------------------------------------------------------------


 Static calculation
 charge density and potential remain constant during run
 non-spin polarized calculation
 RMM-DIIS sequential band-by-band and
  variant of blocked Davidson during initial phase
 perform sub-space diagonalisation
    before iterative eigenvector-optimisation
 no mixing
 using additional bands           49
 real space projection scheme for non local part
 use partial core corrections
 calculate Harris-corrections to forces 
   (improved forces if not selfconsistent)
 use gradient corrections 
 WARNING: stress and forces are not correct
  (second derivative of E(xc) not defined)
 use of overlap-Matrix (Vanderbilt PP)
 Fermi weights with tetrahedron method with Bloechl corrections


--------------------------------------------------------------------------------------------------------


  energy-cutoff  :      500.00
  volume of cell :     1091.97
      direct lattice vectors                 reciprocal lattice vectors
     7.696786404  0.000000000  0.000000000     0.129924354 -0.075011849  0.000000000
     3.848392758  6.665612809  0.000000000     0.000000000  0.150023716  0.000000000
     0.000000000  0.000000000 21.284399033     0.000000000  0.000000000  0.046982769

  length of vectors
     7.696786404  7.696786404 21.284399033     0.150023716  0.150023716  0.046982769


 
 k-points in units of 2pi/SCALE and weight: Automatic mesh                          
   0.00000000  0.00000000  0.00000000       0.016
   0.01624054 -0.00937648  0.00000000       0.094
   0.03248109 -0.01875296  0.00000000       0.094
   0.04872163 -0.02812944  0.00000000       0.094
   0.06496218 -0.03750592  0.00000000       0.047
   0.03248109  0.00000000  0.00000000       0.094
   0.04872163 -0.00937648  0.00000000       0.188
   0.06496218 -0.01875296  0.00000000       0.188
   0.06496218  0.00000000  0.00000000       0.094
  -0.04872163  0.06563537  0.00000000       0.094
 
 k-points in reciprocal lattice and weights: Automatic mesh                          
   0.00000000  0.00000000  0.00000000       0.016
   0.12500000 -0.00000000  0.00000000       0.094
   0.25000000 -0.00000000  0.00000000       0.094
   0.37500000 -0.00000000  0.00000000       0.094
   0.50000000 -0.00000000  0.00000000       0.047
   0.25000000  0.12500000  0.00000000       0.094
   0.37500000  0.12500000  0.00000000       0.188
   0.50000000  0.12500000  0.00000000       0.188
   0.50000000  0.25000000  0.00000000       0.094
  -0.37500000  0.25000000  0.00000000       0.094
 
 position of ions in fractional coordinates (direct lattice) 
   0.00000000  0.00000000  0.25237075
   0.33333334  0.00000000  0.25237075
   0.66666669  0.00000000  0.25237075
   0.00000000  0.33333334  0.25237075
   0.33333331  0.33333334  0.25237075
   0.66666669  0.33333334  0.25237075
   0.00000000  0.66666669  0.25237075
   0.33333337  0.66666669  0.25237075
   0.66666663  0.66666669  0.25237075
   0.11111112  0.11111111  0.35079026
   0.44444442  0.11111111  0.35079026
   0.77777779  0.11111111  0.35079026
   0.11111112  0.44444445  0.35079026
   0.44444448  0.44444445  0.35079026
   0.77777773  0.44444445  0.35079026
   0.11111111  0.77777773  0.35079026
   0.44444448  0.77777773  0.35079026
   0.77777785  0.77777773  0.35079026
   0.88871764  0.22256474  0.44871889
   0.22220567  0.22220565  0.44834471
   0.55558873  0.22220565  0.44834471
   0.88884876  0.55557559  0.44859582
   0.22220564  0.55558867  0.44834471
   0.55557565  0.55557559  0.44859582
   0.88871764  0.88871764  0.44871889
   0.22256476  0.88871764  0.44871889
   0.55557559  0.88884876  0.44859582
   0.00000000  0.00000000  0.54571678
   0.33320706  0.00216992  0.54594194
   0.66462305  0.00216992  0.54594194
   0.00216992  0.33320706  0.54594194
   0.66462305  0.33320706  0.54594194
   0.00216992  0.66462305  0.54594194
   0.33320709  0.66462305  0.54594194
   0.66666663  0.66666669  0.54564374
   0.33333331  0.33333334  0.54195585
   0.33333331  0.33333334  0.62418867
   0.33333331  0.33333334  0.67899185
 
 position of ions in cartesian coordinates  (Angst):
   0.00000000  0.00000000  5.37155964
   2.56559554  0.00000000  5.37155964
   5.13119109  0.00000000  5.37155964
   1.28279762  2.22187100  5.37155964
   3.84839293  2.22187100  5.37155964
   6.41398872  2.22187100  5.37155964
   2.56559525  4.44374201  5.37155964
   5.13119102  4.44374201  5.37155964
   7.69678588  4.44374201  5.37155964
   1.28279775  0.74062365  7.46635991
   3.84839295  0.74062365  7.46635991
   6.41398873  0.74062365  7.46635991
   2.56559535  2.96249461  7.46635991
   5.13119101  2.96249461  7.46635991
   7.69678586  2.96249461  7.46635991
   3.84839268  5.18436521  7.46635991
   6.41398840  5.18436521  7.46635991
   8.97958418  5.18436521  7.46635991
   7.69678637  1.48353040  9.55071198
   2.56540417  1.48113684  9.54274773
   5.13138238  1.48113684  9.54274773
   8.97935215  3.70325176  9.54809236
   3.84839272  3.70333893  9.54274773
   6.41422017  3.70325176  9.54809236
  10.26040434  5.92384766  9.55071198
   5.13316792  5.92384766  9.55071198
   7.69678578  5.92472170  9.54809236
   0.00000000  0.00000000 11.61525363
   2.57297424  0.01446385 11.62004611
   5.12381239  0.01446385 11.62004611
   1.29901303  2.22102922 11.62004611
   6.39777331  2.22102922 11.62004611
   2.57443196  4.43011995 11.62004611
   5.12235431  4.43011995 11.62004611
   7.69678588  4.44374201 11.61369909
   3.84839293  2.22187100 11.53520467
   3.84839293  2.22187100 13.28548075
   3.84839293  2.22187100 14.45193342
 


--------------------------------------------------------------------------------------------------------


 k-point   1 :   0.0000 0.0000 0.0000  plane waves:   27671
 k-point   2 :   0.1250-0.0000 0.0000  plane waves:   27649
 k-point   3 :   0.2500-0.0000 0.0000  plane waves:   27714
 k-point   4 :   0.3750-0.0000 0.0000  plane waves:   27740
 k-point   5 :   0.5000-0.0000 0.0000  plane waves:   27782
 k-point   6 :   0.2500 0.1250 0.0000  plane waves:   27698
 k-point   7 :   0.3750 0.1250 0.0000  plane waves:   27702
 k-point   8 :   0.5000 0.1250 0.0000  plane waves:   27747
 k-point   9 :   0.5000 0.2500 0.0000  plane waves:   27734
 k-point  10 :  -0.3750 0.2500 0.0000  plane waves:   27782

 maximum and minimum number of plane-waves per node :     27782    27649

 maximum number of plane-waves:     27782
 maximum index in each direction: 
   IXMAX=   14   IYMAX=   14   IZMAX=   38
   IXMIN=  -14   IYMIN=  -14   IZMIN=  -38


 serial   3D FFT for wavefunctions
 parallel 3D FFT for charge:
    minimum data exchange during FFTs selected (reduces bandwidth)


 total amount of memory used by VASP MPI-rank0   105020. kBytes
=======================================================================

   base      :      30000. kBytes
   nonlr-proj:      17631. kBytes
   fftplans  :       2916. kBytes
   grid      :      12878. kBytes
   one-center:        590. kBytes
   wavefun   :      41005. kBytes
 
     INWAV:  cpu time    0.0000: real time    0.0000
 initial charge density was supplied:
 number of electron     404.9999822 magnetization 
 keeping initial charge density in first step


--------------------------------------------------------------------------------------------------------


 Maximum index for non-local projection operator         2776
 Maximum index for augmentation-charges          370 (set IRDMAX)


--------------------------------------------------------------------------------------------------------


 First call to EWALD:  gamma=   0.172
 Maximum number of real-space cells 4x 4x 2
 Maximum number of reciprocal cells 2x 2x 5

    FEWALD:  cpu time    0.0013: real time    0.0014


--------------------------------------- Iteration      1(   1)  ---------------------------------------


    POTLOK:  cpu time    0.0271: real time    0.0273
    SETDIJ:  cpu time    0.0041: real time    0.0042
     EDDAV:  cpu time    5.6836: real time    5.6855
 BZINTS: Fermi energy:   13.994014;  405.000000 electrons
         Band energy: 0.267862E+04;  BLOECHL correction:   -0.016409
       DOS:  cpu time    0.0106: real time    0.0106
    --------------------------------------------
      LOOP:  cpu time    5.7254: real time    5.7277

 eigenvalue-minimisations  :  5040
 total energy-change (2. order) : 0.3665247E+04  (-0.1746369E+05)
 number of electron     404.9999822 magnetization 
 augmentation part      404.9999822 magnetization 

 Free energy of the ion-electron system (eV)
  ---------------------------------------------------
  alpha Z        PSCENC =       898.16293749
  Ewald energy   TEWEN  =    147493.52988716
  -Hartree energ DENC   =   -195537.94039665
  -exchange      EXHF   =         0.00000000
  -V(xc)+E(xc)   XCENC  =      1630.05309718
  PAW double counting   =     47675.37742850   -51513.90614239
  entropy T*S    EENTRO =         0.00000000
  eigenvalues    EBANDS =      2678.61566228
  atomic energy  EATOM  =     50341.35485032
  Solvation  Ediel_sol  =         0.00000000
  ---------------------------------------------------
  free energy    TOTEN  =      3665.24732389 eV

  energy without entropy =     3665.24732389  energy(sigma->0) =     3665.24732389


--------------------------------------------------------------------------------------------------------




--------------------------------------- Iteration      1(   2)  ---------------------------------------


     EDDAV:  cpu time    5.6500: real time    5.6504
 BZINTS: Fermi energy:    3.189455;  405.000000 electrons
         Band energy:-0.616393E+03;  BLOECHL correction:   -0.008525
       DOS:  cpu time    0.0106: real time    0.0106
    --------------------------------------------
      LOOP:  cpu time    5.6606: real time    5.6610

 eigenvalue-minimisations  :  5040
 total energy-change (2. order) :-0.3295009E+04  (-0.3177013E+04)
 number of electron     404.9999822 magnetization 
 augmentation part      404.9999822 magnetization 

 Free energy of the ion-electron system (eV)
  ---------------------------------------------------
  alpha Z        PSCENC =       898.16293749
  Ewald energy   TEWEN  =    147493.52988716
  -Hartree energ DENC   =   -195537.94039665
  -exchange      EXHF   =         0.00000000
  -V(xc)+E(xc)   XCENC  =      1630.05309718
  PAW double counting   =     47675.37742850   -51513.90614239
  entropy T*S    EENTRO =         0.00000000
  eigenvalues    EBANDS =      -616.39322512
  atomic energy  EATOM  =     50341.35485032
  Solvation  Ediel_sol  =         0.00000000
  ---------------------------------------------------
  free energy    TOTEN  =       370.23843649 eV

  energy without entropy =      370.23843649  energy(sigma->0) =      370.23843649


--------------------------------------------------------------------------------------------------------




--------------------------------------- Iteration      1(   3)  ---------------------------------------


     EDDAV:  cpu time    6.0586: real time    6.0591
 BZINTS: Fermi energy:    0.302790;  405.000000 electrons
         Band energy:-0.109534E+04;  BLOECHL correction:   -0.067012
       DOS:  cpu time    0.0100: real time    0.0100
    --------------------------------------------
      LOOP:  cpu time    6.0686: real time    6.0690

 eigenvalue-minimisations  :  5488
 total energy-change (2. order) :-0.4789473E+03  (-0.4504608E+03)
 number of electron     404.9999822 magnetization 
 augmentation part      404.9999822 magnetization 

 Free energy of the ion-electron system (eV)
  ---------------------------------------------------
  alpha Z        PSCENC =       898.16293749
  Ewald energy   TEWEN  =    147493.52988716
  -Hartree energ DENC   =   -195537.94039665
  -exchange      EXHF   =         0.00000000
  -V(xc)+E(xc)   XCENC  =      1630.05309718
  PAW double counting   =     47675.37742850   -51513.90614239
  entropy T*S    EENTRO =         0.00000000
  eigenvalues    EBANDS =     -1095.34052234
  atomic energy  EATOM  =     50341.35485032
  Solvation  Ediel_sol  =         0.00000000
  ---------------------------------------------------
  free energy    TOTEN  =      -108.70886073 eV

  energy without entropy =     -108.70886073  energy(sigma->0) =     -108.70886073


--------------------------------------------------------------------------------------------------------




--------------------------------------- Iteration      1(   4)  ---------------------------------------


     EDDAV:  cpu time    7.6129: real time    7.6133
 BZINTS: Fermi energy:    0.165347;  405.000000 electrons
         Band energy:-0.112968E+04;  BLOECHL correction:   -0.062809
       DOS:  cpu time    0.0099: real time    0.0099
    --------------------------------------------
      LOOP:  cpu time    7.6228: real time    7.6232

 eigenvalue-minimisations  :  7196
 total energy-change (2. order) :-0.3433832E+02  (-0.3369144E+02)
 number of electron     404.9999822 magnetization 
 augmentation part      404.9999822 magnetization 

 Free energy of the ion-electron system (eV)
  ---------------------------------------------------
  alpha Z        PSCENC =       898.16293749
  Ewald energy   TEWEN  =    147493.52988716
  -Hartree energ DENC   =   -195537.94039665
  -exchange      EXHF   =         0.00000000
  -V(xc)+E(xc)   XCENC  =      1630.05309718
  PAW double counting   =     47675.37742850   -51513.90614239
  entropy T*S    EENTRO =         0.00000000
  eigenvalues    EBANDS =     -1129.67884280
  atomic energy  EATOM  =     50341.35485032
  Solvation  Ediel_sol  =         0.00000000
  ---------------------------------------------------
  free energy    TOTEN  =      -143.04718119 eV

  energy without entropy =     -143.04718119  energy(sigma->0) =     -143.04718119


--------------------------------------------------------------------------------------------------------




--------------------------------------- Iteration      1(   5)  ---------------------------------------


     EDDAV:  cpu time    6.3599: real time    6.3603
 BZINTS: Fermi energy:    0.160938;  405.000000 electrons
         Band energy:-0.113045E+04;  BLOECHL correction:   -0.059528
       DOS:  cpu time    0.0101: real time    0.0101
    --------------------------------------------
      LOOP:  cpu time    6.3699: real time    6.3704

 eigenvalue-minimisations  :  5824
 total energy-change (2. order) :-0.7727859E+00  (-0.7730928E+00)
 number of electron     404.9999822 magnetization 
 augmentation part      404.9999822 magnetization 

 Free energy of the ion-electron system (eV)
  ---------------------------------------------------
  alpha Z        PSCENC =       898.16293749
  Ewald energy   TEWEN  =    147493.52988716
  -Hartree energ DENC   =   -195537.94039665
  -exchange      EXHF   =         0.00000000
  -V(xc)+E(xc)   XCENC  =      1630.05309718
  PAW double counting   =     47675.37742850   -51513.90614239
  entropy T*S    EENTRO =         0.00000000
  eigenvalues    EBANDS =     -1130.45162867
  atomic energy  EATOM  =     50341.35485032
  Solvation  Ediel_sol  =         0.00000000
  ---------------------------------------------------
  free energy    TOTEN  =      -143.81996706 eV

  energy without entropy =     -143.81996706  energy(sigma->0) =     -143.81996706


--------------------------------------------------------------------------------------------------------




--------------------------------------- Iteration      1(   6)  ---------------------------------------


    EDDIAG:  cpu time    1.0549: real time    1.0551
  RMM-DIIS:  cpu time    3.1133: real time    3.1135
    ORTHCH:  cpu time    0.2062: real time    0.2062
 BZINTS: Fermi energy:    0.160916;  405.000000 electrons
         Band energy:-0.113047E+04;  BLOECHL correction:   -0.059526
       DOS:  cpu time    0.0099: real time    0.0099
    --------------------------------------------
      LOOP:  cpu time    4.3843: real time    4.3848

 eigenvalue-minimisations  :  5475
 total energy-change (2. order) :-0.2078586E-01  (-0.2078641E-01)
 number of electron     404.9999822 magnetization 
 augmentation part      404.9999822 magnetization 

 Free energy of the ion-electron system (eV)
  ---------------------------------------------------
  alpha Z        PSCENC =       898.16293749
  Ewald energy   TEWEN  =    147493.52988716
  -Hartree energ DENC   =   -195537.94039665
  -exchange      EXHF   =         0.00000000
  -V(xc)+E(xc)   XCENC  =      1630.05309718
  PAW double counting   =     47675.37742850   -51513.90614239
  entropy T*S    EENTRO =         0.00000000
  eigenvalues    EBANDS =     -1130.47241452
  atomic energy  EATOM  =     50341.35485032
  Solvation  Ediel_sol  =         0.00000000
  ---------------------------------------------------
  free energy    TOTEN  =      -143.84075291 eV

  energy without entropy =     -143.84075291  energy(sigma->0) =     -143.84075291


--------------------------------------------------------------------------------------------------------




--------------------------------------- Iteration      1(   7)  ---------------------------------------


    EDDIAG:  cpu time    1.0588: real time    1.0589
  RMM-DIIS:  cpu time    4.3387: real time    4.3390
    ORTHCH:  cpu time    0.2063: real time    0.2063
 BZINTS: Fermi energy:    0.160908;  405.000000 electrons
         Band energy:-0.113048E+04;  BLOECHL correction:   -0.059526
       DOS:  cpu time    0.0097: real time    0.0097
    --------------------------------------------
      LOOP:  cpu time    5.6136: real time    5.6140

 eigenvalue-minimisations  :  7773
 total energy-change (2. order) :-0.8943451E-02  (-0.8757999E-02)
 number of electron     404.9999822 magnetization 
 augmentation part      404.9999822 magnetization 

 Free energy of the ion-electron system (eV)
  ---------------------------------------------------
  alpha Z        PSCENC =       898.16293749
  Ewald energy   TEWEN  =    147493.52988716
  -Hartree energ DENC   =   -195537.94039665
  -exchange      EXHF   =         0.00000000
  -V(xc)+E(xc)   XCENC  =      1630.05309718
  PAW double counting   =     47675.37742850   -51513.90614239
  entropy T*S    EENTRO =         0.00000000
  eigenvalues    EBANDS =     -1130.48135797
  atomic energy  EATOM  =     50341.35485032
  Solvation  Ediel_sol  =         0.00000000
  ---------------------------------------------------
  free energy    TOTEN  =      -143.84969636 eV

  energy without entropy =     -143.84969636  energy(sigma->0) =     -143.84969636


--------------------------------------------------------------------------------------------------------




--------------------------------------- Iteration      1(   8)  ---------------------------------------


    EDDIAG:  cpu time    1.0564: real time    1.0564
  RMM-DIIS:  cpu time    4.1947: real time    4.1950
    ORTHCH:  cpu time    0.2060: real time    0.2060
 BZINTS: Fermi energy:    0.160907;  405.000000 electrons
         Band energy:-0.113048E+04;  BLOECHL correction:   -0.059525
       DOS:  cpu time    0.0103: real time    0.0103
    --------------------------------------------
      LOOP:  cpu time    5.4674: real time    5.4677

 eigenvalue-minimisations  :  7504
 total energy-change (2. order) :-0.8986242E-03  (-0.9601858E-03)
 number of electron     404.9999822 magnetization 
 augmentation part      404.9999822 magnetization 

 Free energy of the ion-electron system (eV)
  ---------------------------------------------------
  alpha Z        PSCENC =       898.16293749
  Ewald energy   TEWEN  =    147493.52988716
  -Hartree energ DENC   =   -195537.94039665
  -exchange      EXHF   =         0.00000000
  -V(xc)+E(xc)   XCENC  =      1630.05309718
  PAW double counting   =     47675.37742850   -51513.90614239
  entropy T*S    EENTRO =         0.00000000
  eigenvalues    EBANDS =     -1130.48225660
  atomic energy  EATOM  =     50341.35485032
  Solvation  Ediel_sol  =         0.00000000
  ---------------------------------------------------
  free energy    TOTEN  =      -143.85059499 eV

  energy without entropy =     -143.85059499  energy(sigma->0) =     -143.85059499


--------------------------------------------------------------------------------------------------------




--------------------------------------- Iteration      1(   9)  ---------------------------------------


    EDDIAG:  cpu time    1.0556: real time    1.0586
  RMM-DIIS:  cpu time    4.4304: real time    4.4306
    ORTHCH:  cpu time    0.2064: real time    0.2064
 BZINTS: Fermi energy:    0.160907;  405.000000 electrons
         Band energy:-0.113048E+04;  BLOECHL correction:   -0.059525
       DOS:  cpu time    0.0101: real time    0.0101
    --------------------------------------------
      LOOP:  cpu time    5.7025: real time    5.7056

 eigenvalue-minimisations  :  7966
 total energy-change (2. order) :-0.1500697E-03  (-0.1579600E-03)
 number of electron     404.9999822 magnetization 
 augmentation part      404.9999822 magnetization 

 Free energy of the ion-electron system (eV)
  ---------------------------------------------------
  alpha Z        PSCENC =       898.16293749
  Ewald energy   TEWEN  =    147493.52988716
  -Hartree energ DENC   =   -195537.94039665
  -exchange      EXHF   =         0.00000000
  -V(xc)+E(xc)   XCENC  =      1630.05309718
  PAW double counting   =     47675.37742850   -51513.90614239
  entropy T*S    EENTRO =         0.00000000
  eigenvalues    EBANDS =     -1130.48240667
  atomic energy  EATOM  =     50341.35485032
  Solvation  Ediel_sol  =         0.00000000
  ---------------------------------------------------
  free energy    TOTEN  =      -143.85074506 eV

  energy without entropy =     -143.85074506  energy(sigma->0) =     -143.85074506


--------------------------------------------------------------------------------------------------------




--------------------------------------- Iteration      1(  10)  ---------------------------------------


    EDDIAG:  cpu time    1.0564: real time    1.0566
  RMM-DIIS:  cpu time    3.7935: real time    3.7937
    ORTHCH:  cpu time    0.2057: real time    0.2057
 BZINTS: Fermi energy:    0.160907;  405.000000 electrons
         Band energy:-0.113048E+04;  BLOECHL correction:   -0.059525
       DOS:  cpu time    0.0101: real time    0.0101
    --------------------------------------------
      LOOP:  cpu time    5.0656: real time    5.0660

 eigenvalue-minimisations  :  6631
 total energy-change (2. order) :-0.3002846E-04  (-0.3268068E-04)
 number of electron     404.9999822 magnetization 
 augmentation part      404.9999822 magnetization 

 Free energy of the ion-electron system (eV)
  ---------------------------------------------------
  alpha Z        PSCENC =       898.16293749
  Ewald energy   TEWEN  =    147493.52988716
  -Hartree energ DENC   =   -195537.94039665
  -exchange      EXHF   =         0.00000000
  -V(xc)+E(xc)   XCENC  =      1630.05309718
  PAW double counting   =     47675.37742850   -51513.90614239
  entropy T*S    EENTRO =         0.00000000
  eigenvalues    EBANDS =     -1130.48243670
  atomic energy  EATOM  =     50341.35485032
  Solvation  Ediel_sol  =         0.00000000
  ---------------------------------------------------
  free energy    TOTEN  =      -143.85077509 eV

  energy without entropy =     -143.85077509  energy(sigma->0) =     -143.85077509


--------------------------------------------------------------------------------------------------------




--------------------------------------- Iteration      1(  11)  ---------------------------------------


    EDDIAG:  cpu time    1.0564: real time    1.0565
  RMM-DIIS:  cpu time    2.5896: real time    2.5898
    ORTHCH:  cpu time    0.2064: real time    0.2064
 BZINTS: Fermi energy:    0.160907;  405.000000 electrons
         Band energy:-0.113048E+04;  BLOECHL correction:   -0.059525
       DOS:  cpu time    0.0103: real time    0.0103
    --------------------------------------------
      LOOP:  cpu time    3.8627: real time    3.8630

 eigenvalue-minimisations  :  4173
 total energy-change (2. order) :-0.4342786E-05  (-0.4964632E-05)
 number of electron     404.9999822 magnetization 
 augmentation part      404.9999822 magnetization 

 Free energy of the ion-electron system (eV)
  ---------------------------------------------------
  alpha Z        PSCENC =       898.16293749
  Ewald energy   TEWEN  =    147493.52988716
  -Hartree energ DENC   =   -195537.94039665
  -exchange      EXHF   =         0.00000000
  -V(xc)+E(xc)   XCENC  =      1630.05309718
  PAW double counting   =     47675.37742850   -51513.90614239
  entropy T*S    EENTRO =         0.00000000
  eigenvalues    EBANDS =     -1130.48244104
  atomic energy  EATOM  =     50341.35485032
  Solvation  Ediel_sol  =         0.00000000
  ---------------------------------------------------
  free energy    TOTEN  =      -143.85077943 eV

  energy without entropy =     -143.85077943  energy(sigma->0) =     -143.85077943


--------------------------------------------------------------------------------------------------------




 average (electrostatic) potential at core
  the test charge radii are     0.9430  0.9791  0.6991  0.7215
  (the norm of the test charge is              1.0000)
       1 -70.8125       2 -70.7705       3 -70.7705       4 -70.7705       5 -70.7682
       6 -70.7702       7 -70.7705       8 -70.7702       9 -70.7885      10 -71.0553
      11 -71.0190      12 -71.0551      13 -71.0190      14 -71.0187      15 -71.0468
      16 -71.0551      17 -71.0468      18 -71.0469      19 -71.0281      20 -71.0640
      21 -71.0638      22 -71.0580      23 -71.0638      24 -71.0577      25 -71.0282
      26 -71.0282      27 -71.0580      28 -70.7553      29 -70.7471      30 -70.7470
      31 -70.7471      32 -70.7468      33 -70.7470      34 -70.7468      35 -70.7363
      36 -91.4307      37 -57.0009      38 -77.7233
 
 
 
 E-fermi :   0.1609     XC(G=0):  -6.0127     alpha+bet : -5.4060

 Fermi energy:         0.1609068676

 k-point     1 :       0.0000    0.0000    0.0000
  band No.  band energies     occupation 
      1     -23.4809      2.00000
      2      -9.4056      2.00000
      3      -8.5882      2.00000
      4      -7.3689      2.00000
      5      -6.6776      2.00000
      6      -6.4042      2.00000
      7      -6.4041      2.00000
      8      -5.6463      2.00000
      9      -5.6178      2.00000
     10      -5.6177      2.00000
     11      -5.6145      2.00000
     12      -5.6090      2.00000
     13      -5.6089      2.00000
     14      -5.4740      2.00000
     15      -4.8468      2.00000
     16      -4.8416      2.00000
     17      -4.8374      2.00000
     18      -4.8374      2.00000
     19      -4.8313      2.00000
     20      -4.8312      2.00000
     21      -4.6934      2.00000
     22      -4.1421      2.00000
     23      -4.1421      2.00000
     24      -4.1397      2.00000
     25      -4.1356      2.00000
     26      -4.1356      2.00000
     27      -4.0679      2.00000
     28      -3.8589      2.00000
     29      -3.8507      2.00000
     30      -3.8507      2.00000
     31      -3.8450      2.00000
     32      -3.8449      2.00000
     33      -3.8330      2.00000
     34      -3.6851      2.00000
     35      -3.6851      2.00000
     36      -3.6788      2.00000
     37      -3.6788      2.00000
     38      -3.6714      2.00000
     39      -3.6668      2.00000
     40      -3.6131      2.00000
     41      -3.6131      2.00000
     42      -3.6114      2.00000
     43      -3.6077      2.00000
     44      -3.5922      2.00000
     45      -3.5922      2.00000
     46      -3.5498      2.00000
     47      -3.5498      2.00000
     48      -3.5262      2.00000
     49      -3.5262      2.00000
     50      -3.4231      2.00000
     51      -3.4170      2.00000
     52      -3.3341      2.00000
     53      -3.3338      2.00000
     54      -3.3338      2.00000
     55      -3.3168      2.00000
     56      -3.3168      2.00000
     57      -3.3136      2.00000
     58      -3.2897      2.00000
     59      -3.2742      2.00000
     60      -2.9931      2.00000
     61      -2.9931      2.00000
     62      -2.9885      2.00000
     63      -2.9838      2.00000
     64      -2.9838      2.00000
     65      -2.9674      2.00000
     66      -2.8804      2.00000
     67      -2.8804      2.00000
     68      -2.8540      2.00000
     69      -2.8540      2.00000
     70      -2.8438      2.00000
     71      -2.8438      2.00000
     72      -2.8407      2.00000
     73      -2.8262      2.00000
     74      -2.8262      2.00000
     75      -2.8261      2.00000
     76      -2.8222      2.00000
     77      -2.7471      2.00000
     78      -2.7395      2.00000
     79      -2.7395      2.00000
     80      -2.6916      2.00000
     81      -2.6916      2.00000
     82      -2.6341      2.00000
     83      -2.6341      2.00000
     84      -2.6302      2.00000
     85      -2.6220      2.00000
     86      -2.6220      2.00000
     87      -2.6165      2.00000
     88      -2.5695      2.00000
     89      -2.5695      2.00000
     90      -2.5592      2.00000
     91      -2.5551      2.00000
     92      -2.5550      2.00000
     93      -2.5495      2.00000
     94      -2.5357      2.00000
     95      -2.5357      2.00000
     96      -2.4991      2.00000
     97      -2.4991      2.00000
     98      -2.4660      2.00000
     99      -2.4660      2.00000
    100      -2.4506      2.00000
    101      -2.4506      2.00000
    102      -2.4412      2.00000
    103      -2.4214      2.00000
    104      -2.4214      2.00000
    105      -2.3912      2.00000
    106      -2.3912      2.00000
    107      -2.3892      2.00000
    108      -2.3892      2.00000
    109      -2.3891      2.00000
    110      -2.3132      2.00000
    111      -2.3132      2.00000
    112      -2.2865      2.00000
    113      -2.1809      2.00000
    114      -2.1809      2.00000
    115      -2.1421      2.00000
    116      -2.1400      2.00000
    117      -2.1399      2.00000
    118      -2.1360      2.00000
    119      -2.1338      2.00000
    120      -2.1337      2.00000
    121      -2.1336      2.00000
    122      -2.1197      2.00000
    123      -2.1170      2.00000
    124      -2.1170      2.00000
    125      -2.0850      2.00000
    126      -2.0772      2.00000
    127      -1.9718      2.00000
    128      -1.9717      2.00000
    129      -1.9394      2.00000
    130      -1.9394      2.00000
    131      -1.9280      2.00000
    132      -1.9100      2.00000
    133      -1.9100      2.00000
    134      -1.8994      2.00000
    135      -1.8994      2.00000
    136      -1.8791      2.00000
    137      -1.8548      2.00000
    138      -1.8548      2.00000
    139      -1.8229      2.00000
    140      -1.8229      2.00000
    141      -1.8229      2.00000
    142      -1.8184      2.00000
    143      -1.8150      2.00000
    144      -1.8150      2.00000
    145      -1.7827      2.00000
    146      -1.7827      2.00000
    147      -1.6785      2.00000
    148      -1.6785      2.00000
    149      -1.6776      2.00000
    150      -1.6736      2.00000
    151      -1.6736      2.00000
    152      -1.6646      2.00000
    153      -1.6637      2.00000
    154      -1.6637      2.00000
    155      -1.6610      2.00000
    156      -1.6531      2.00000
    157      -1.6530      2.00000
    158      -1.6302      2.00000
    159      -1.5411      2.00000
    160      -1.5406      2.00000
    161      -1.5406      2.00000
    162      -1.5393      2.00000
    163      -1.5367      2.00000
    164      -1.5338      2.00000
    165      -1.5334      2.00000
    166      -1.5334      2.00000
    167      -1.5202      2.00000
    168      -1.5202      2.00000
    169      -1.5078      2.00000
    170      -1.5078      2.00000
    171      -1.4968      2.00000
    172      -1.4853      2.00000
    173      -1.4853      2.00000
    174      -1.4673      2.00000
    175      -1.4672      2.00000
    176      -1.4629      2.00000
    177      -1.4616      2.00000
    178      -1.4582      2.00000
    179      -1.4554      2.00000
    180      -1.4554      2.00000
    181      -1.4523      2.00000
    182      -1.4523      2.00000
    183      -1.4409      2.00000
    184      -1.4409      2.00000
    185      -1.4297      2.00000
    186      -1.4290      2.00000
    187      -1.4290      2.00000
    188      -1.4248      2.00000
    189      -1.4222      2.00000
    190      -1.3532      2.00000
    191      -1.3532      2.00000
    192      -1.3308      2.00000
    193      -1.3308      2.00000
    194      -1.3170      2.00000
    195      -1.3116      2.00000
    196      -1.2780      2.00000
    197      -1.2780      2.00000
[...]
  0.000   0.000   0.000   0.000   0.000   0.000   0.000   0.000   0.000   0.000   0.000   0.000   0.000   0.000   0.000   0.000
  0.000   0.000   0.000   0.000   0.000   0.000   0.000   0.000   0.000   0.000   0.000   0.000   0.000   0.000   0.000   0.000
  0.000   0.000   0.000   0.000   0.000   0.000   0.000   0.000   0.000   0.000   1.000   0.000   0.000   0.000   0.000   0.000
  0.000   0.000   0.000   0.000   0.000   0.000   0.000   0.000   0.000   0.000   0.000   0.000   0.000   0.000   0.000   0.000
  0.000   0.000   0.000   0.000   0.000   0.000   0.000   0.000   0.000   0.000   0.000   0.000   0.000   0.000   0.000   0.000
  0.000   0.000   0.000   0.000   0.000   0.000   0.000   0.000   0.000   0.000   0.000   0.000   0.000   0.000   0.000   0.000
  0.000   0.000   0.000   0.000   0.000   0.000   0.000   0.000   0.000   0.000   0.000   0.000   0.000   0.000   0.000   0.000
  0.000   0.000   0.000   0.000   0.000   0.000   0.000   0.000   0.000   0.000   0.000   0.000   0.000   0.000   0.000   0.000
  0.000   0.000   0.000   0.000   0.000   0.000   0.000   0.000   0.000   0.000   0.000   0.000   0.000   0.000   0.000   0.000
  0.000   0.000   0.000   0.000   0.000   0.000   0.000   0.000   0.000   0.000   0.000   0.000   0.000   0.000   0.000   0.000


------------------------ aborting loop because EDIFF is reached ----------------------------------------





 total charge

# of ion       s       p       d       tot
------------------------------------------
    1        0.446   0.284   9.188   9.918
    2        0.449   0.284   9.188   9.921
    3        0.449   0.284   9.188   9.921
    4        0.449   0.284   9.188   9.921
    5        0.448   0.287   9.185   9.920
    6        0.449   0.284   9.188   9.921
    7        0.449   0.284   9.188   9.921
    8        0.449   0.284   9.188   9.921
    9        0.446   0.285   9.188   9.919
   10        0.441   0.372   9.179   9.991
   11        0.444   0.369   9.181   9.994
   12        0.441   0.372   9.179   9.991
   13        0.444   0.369   9.181   9.994
   14        0.444   0.369   9.181   9.994
   15        0.438   0.373   9.180   9.990
   16        0.441   0.372   9.179   9.991
   17        0.438   0.373   9.180   9.990
   18        0.438   0.373   9.180   9.990
   19        0.442   0.372   9.182   9.996
   20        0.449   0.388   9.172  10.010
   21        0.449   0.388   9.172  10.010
   22        0.438   0.377   9.179   9.995
   23        0.449   0.388   9.172  10.010
   24        0.438   0.377   9.179   9.995
   25        0.442   0.372   9.182   9.996
   26        0.442   0.372   9.182   9.996
   27        0.438   0.377   9.179   9.995
   28        0.450   0.285   9.192   9.927
   29        0.444   0.289   9.194   9.927
   30        0.444   0.289   9.194   9.927
   31        0.444   0.289   9.194   9.927
   32        0.444   0.289   9.194   9.927
   33        0.444   0.289   9.194   9.927
   34        0.444   0.289   9.194   9.927
   35        0.449   0.285   9.192   9.926
   36        0.502   0.612   8.400   9.515
   37        0.964   1.543   0.000   2.506
   38        1.615   3.526   0.000   5.141
--------------------------------------------------
tot         18.632  17.304 329.855 365.791
 
    CHARGE:  cpu time    0.2121: real time    0.2123
    FORLOC:  cpu time    0.0080: real time    0.0080
    FORNL :  cpu time    1.1756: real time    1.1757
    STRESS:  cpu time    3.5007: real time    3.5010
    FORCOR:  cpu time    0.0296: real time    0.0297
    FORHAR:  cpu time    0.0123: real time    0.0124
    OFIELD:  cpu time    0.0001: real time    0.0001

  FORCE on cell =-STRESS in cart. coord.  units (eV):
  Direction    XX          YY          ZZ          XY          YZ          ZX
  --------------------------------------------------------------------------------------
  Alpha Z   898.16294   898.16294   898.16294
  Ewald  173534.85364173534.85316************     0.00043     0.00011     0.00020
  Hartree187000.89817187000.89811************     0.00006     0.00005     0.00009
  E(xc)   -2346.83265 -2346.83224 -2349.84196    -0.00036    -0.00003    -0.00006
  Local  ************************373372.20425     0.01901    -0.00059    -0.00104
  n-local  -791.06756  -778.85345  -806.21347     6.90258    -0.05439     0.12623
  augment  3494.14837  3494.16885  3497.18931    -0.01774     0.00026     0.00049
  Kinetic  3408.39275  3408.74461  3396.07898     2.28386     2.10964    -1.49117
  Fock        0.00000     0.00000     0.00000     0.00000     0.00000     0.00000
  -------------------------------------------------------------------------------------
  Total      -3.08930    -3.08930     3.19904     0.00000    -0.00000    -0.00000
  in kB      -4.53272    -4.53272     4.69374     0.00000    -0.00000    -0.00000
  external pressure =       -1.46 kB  Pullay stress =        0.00 kB


 VOLUME and BASIS-vectors are now :
 -----------------------------------------------------------------------------
  energy-cutoff  :      500.00
  volume of cell :     1091.97
      direct lattice vectors                 reciprocal lattice vectors
     7.696786404  0.000000000  0.000000000     0.129924354 -0.075011849  0.000000000
     3.848392758  6.665612809  0.000000000     0.000000000  0.150023716  0.000000000
     0.000000000  0.000000000 21.284399033     0.000000000  0.000000000  0.046982769

  length of vectors
     7.696786404  7.696786404 21.284399033     0.150023716  0.150023716  0.046982769


 FORCES acting on ions
    electron-ion (+dipol)            ewald-force                    non-local-force                 convergence-correction
 -----------------------------------------------------------------------------------------------
   -.416E-04 0.140E-06 0.352E+04   0.578E-04 -.445E-05 -.352E+04   -.543E-17 -.506E-17 -.302E+01   -.307E-03 -.144E-03 -.863E+00
   0.329E+00 0.359E+00 0.352E+04   -.251E+00 -.310E+00 -.352E+04   -.452E-03 0.143E-01 -.206E+01   -.671E-01 -.462E-01 -.702E+00
   -.329E+00 0.359E+00 0.352E+04   0.251E+00 -.310E+00 -.352E+04   0.452E-03 0.143E-01 -.206E+01   0.679E-01 -.437E-01 -.701E+00
   0.476E+00 0.106E+00 0.352E+04   -.394E+00 -.625E-01 -.352E+04   0.122E-01 -.756E-02 -.206E+01   -.735E-01 -.350E-01 -.702E+00
   -.659E-04 -.584E-05 0.352E+04   0.116E-03 -.101E-04 -.352E+04   -.119E-16 -.379E-17 -.189E+01   0.122E-01 0.744E-02 -.551E+00
   -.476E+00 0.106E+00 0.352E+04   0.394E+00 -.627E-01 -.352E+04   -.122E-01 -.756E-02 -.206E+01   0.719E-01 -.338E-01 -.701E+00
   0.146E+00 -.465E+00 0.352E+04   -.143E+00 0.372E+00 -.352E+04   0.126E-01 -.677E-02 -.206E+01   -.385E-02 0.806E-01 -.701E+00
   -.146E+00 -.465E+00 0.352E+04   0.143E+00 0.372E+00 -.352E+04   -.126E-01 -.677E-02 -.206E+01   0.734E-02 0.791E-01 -.701E+00
   -.144E-03 -.329E-04 0.352E+04   0.264E-03 0.206E-04 -.352E+04   0.216E-17 -.623E-18 -.254E+01   -.132E-01 -.683E-02 -.749E+00
   0.316E+01 0.183E+01 0.124E+04   -.276E+01 -.159E+01 -.124E+04   -.386E+00 -.223E+00 -.962E+00   -.139E-02 -.817E-03 -.300E+00
   -.901E-04 0.285E+01 0.124E+04   0.190E-03 -.292E+01 -.124E+04   -.182E-08 0.273E-01 -.712E+00   0.117E-01 0.229E-01 -.179E+00
   -.316E+01 0.183E+01 0.124E+04   0.276E+01 -.159E+01 -.124E+04   0.386E+00 -.223E+00 -.962E+00   -.968E-04 0.722E-03 -.300E+00
   0.247E+01 -.143E+01 0.124E+04   -.253E+01 0.146E+01 -.124E+04   0.237E-01 -.137E-01 -.712E+00   0.261E-01 -.450E-03 -.179E+00
   -.247E+01 -.143E+01 0.124E+04   0.253E+01 0.146E+01 -.124E+04   -.237E-01 -.137E-01 -.712E+00   -.201E-02 -.153E-02 -.180E+00
   -.144E-03 0.126E-01 0.124E+04   0.300E-03 -.947E-01 -.124E+04   -.224E-08 0.337E-01 -.786E+00   -.353E-02 0.334E-01 -.294E+00
   -.910E-04 -.365E+01 0.124E+04   0.185E-03 0.318E+01 -.124E+04   -.297E-07 0.445E+00 -.962E+00   -.354E-03 -.166E-02 -.301E+00
   0.108E-01 -.641E-02 0.124E+04   -.820E-01 0.476E-01 -.124E+04   0.292E-01 -.168E-01 -.786E+00   0.278E-01 -.197E-01 -.294E+00
   -.108E-01 -.637E-02 0.124E+04   0.817E-01 0.475E-01 -.124E+04   -.292E-01 -.168E-01 -.786E+00   -.267E-01 -.171E-01 -.293E+00
   -.544E-04 0.232E+01 -.108E+04   0.653E-04 -.239E+01 0.108E+04   -.381E-08 0.572E-01 0.932E+00   -.108E-01 0.464E-02 0.299E+00
   0.137E+02 0.793E+01 -.105E+04   -.130E+02 -.749E+01 0.105E+04   -.827E+00 -.477E+00 -.888E+00   0.628E-01 0.361E-01 0.275E+00
   -.137E+02 0.793E+01 -.105E+04   0.130E+02 -.749E+01 0.105E+04   0.827E+00 -.477E+00 -.888E+00   -.814E-01 0.367E-01 0.275E+00
   0.740E+01 -.427E+01 -.107E+04   -.764E+01 0.441E+01 0.107E+04   0.253E+00 -.146E+00 0.871E+00   0.245E-01 -.267E-01 0.291E+00
   -.718E-04 -.159E+02 -.105E+04   0.141E-03 0.150E+02 0.105E+04   -.636E-07 0.955E+00 -.888E+00   -.101E-01 -.900E-01 0.275E+00
   -.740E+01 -.427E+01 -.107E+04   0.764E+01 0.441E+01 0.107E+04   -.253E+00 -.146E+00 0.871E+00   -.454E-01 -.271E-01 0.291E+00
   -.201E+01 -.116E+01 -.108E+04   0.207E+01 0.119E+01 0.108E+04   -.495E-01 -.286E-01 0.932E+00   -.183E-01 -.106E-01 0.299E+00
   0.201E+01 -.116E+01 -.108E+04   -.207E+01 0.119E+01 0.108E+04   0.495E-01 -.286E-01 0.932E+00   -.103E-02 -.115E-01 0.299E+00
   -.133E-03 0.854E+01 -.107E+04   0.245E-03 -.882E+01 0.107E+04   -.194E-07 0.292E+00 0.871E+00   -.109E-01 0.345E-01 0.291E+00
   -.241E-04 0.217E-04 -.340E+04   0.304E-04 -.358E-04 0.340E+04   0.729E-18 -.579E-18 0.222E+01   -.576E-04 0.164E-04 0.644E+00
   0.285E+02 0.504E+02 -.337E+04   -.287E+02 -.510E+02 0.337E+04   0.181E+00 0.397E+00 0.308E+01   0.226E-01 0.414E-01 0.573E+00
   -.285E+02 0.504E+02 -.337E+04   0.287E+02 -.510E+02 0.337E+04   -.181E+00 0.397E+00 0.308E+01   -.217E-01 0.436E-01 0.573E+00
   0.579E+02 -.542E+00 -.337E+04   -.585E+02 0.602E+00 0.337E+04   0.434E+00 -.421E-01 0.308E+01   0.472E-01 -.119E-02 0.573E+00
   -.579E+02 -.542E+00 -.337E+04   0.585E+02 0.602E+00 0.337E+04   -.434E+00 -.421E-01 0.308E+01   -.483E-01 -.112E-03 0.573E+00
   0.294E+02 -.499E+02 -.337E+04   -.298E+02 0.504E+02 0.337E+04   0.253E+00 -.355E+00 0.308E+01   0.269E-01 -.407E-01 0.573E+00
   -.294E+02 -.499E+02 -.337E+04   0.298E+02 0.504E+02 0.337E+04   -.253E+00 -.355E+00 0.308E+01   -.235E-01 -.418E-01 0.573E+00
   -.136E-03 -.179E-04 -.340E+04   0.261E-03 0.718E-05 0.340E+04   -.289E-17 0.280E-17 0.233E+01   -.130E-01 -.669E-02 0.615E+00
   -.673E-04 -.226E-04 -.282E+04   0.130E-03 0.238E-04 0.281E+04   0.756E-17 0.471E-17 0.186E+01   0.885E-02 0.540E-02 0.467E+00
   -.513E-05 -.770E-04 -.130E+04   0.123E-04 0.570E-05 0.128E+04   -.524E-19 -.487E-19 0.165E+02   0.117E-02 0.708E-03 0.991E-01
   0.225E-03 -.740E-04 -.203E+04   0.302E-05 0.289E-05 0.209E+04   -.211E-18 0.114E-18 -.592E+02   0.328E-02 0.200E-02 0.117E-01
 -----------------------------------------------------------------------------------------------
   -.961E-05 -.148E-03 0.430E+02   0.898E-13 0.237E-13 0.168E-10   -.511E-16 -.103E-15 -.422E+02   -.544E-01 -.341E-01 -.822E+00
 
 
 POSITION                                       TOTAL-FORCE (eV/Angst)
 -----------------------------------------------------------------------------------
      0.00000      0.00000      5.37156         0.000000      0.000000      0.073470
      2.56560      0.00000      5.37156         0.010928      0.018335      0.098187
      5.13119      0.00000      5.37156        -0.010928      0.018335      0.098187
      1.28280      2.22187      5.37156         0.021343      0.000297      0.098187
      3.84839      2.22187      5.37156         0.000000      0.000000      0.080495
      6.41399      2.22187      5.37156        -0.021343      0.000297      0.098187
      2.56560      4.44374      5.37156         0.010414     -0.018632      0.098187
      5.13119      4.44374      5.37156        -0.010414     -0.018632      0.098187
      7.69679      4.44374      5.37156         0.000000     -0.000000      0.077150
      1.28280      0.74062      7.46636         0.021481      0.012402     -0.067391
      3.84839      0.74062      7.46636         0.000000     -0.026141     -0.127951
      6.41399      0.74062      7.46636        -0.021481      0.012402     -0.067391
      2.56560      2.96249      7.46636        -0.022639      0.013071     -0.127951
      5.13119      2.96249      7.46636         0.022639      0.013071     -0.127951
      7.69679      2.96249      7.46636         0.000000     -0.015416     -0.054180
      3.84839      5.18437      7.46636         0.000000     -0.024804     -0.067391
      6.41399      5.18437      7.46636        -0.013351      0.007708     -0.054180
      8.97958      5.18437      7.46636         0.013351      0.007708     -0.054180
      7.69679      1.48353      9.55071         0.000000     -0.002474      0.021644
      2.56540      1.48114      9.54275         0.007375      0.004258     -0.162484
      5.13138      1.48114      9.54275        -0.007375      0.004258     -0.162484
      8.97935      3.70325      9.54809         0.045473     -0.026254      0.014031
      3.84839      3.70334      9.54275         0.000000     -0.008516     -0.162484
      6.41422      3.70325      9.54809        -0.045473     -0.026254      0.014031
     10.26040      5.92385      9.55071         0.002142      0.001237      0.021644
      5.13317      5.92385      9.55071        -0.002142      0.001237      0.021644
      7.69679      5.92472      9.54809        -0.000000      0.052508      0.014031
      0.00000      0.00000     11.61525         0.000000      0.000000     -0.025395
      2.57297      0.01446     11.62005        -0.070990     -0.155303     -0.048947
      5.12381      0.01446     11.62005         0.070990     -0.155303     -0.048947
      1.29901      2.22103     11.62005        -0.169991      0.016172     -0.048947
      6.39777      2.22103     11.62005         0.169991      0.016172     -0.048947
      2.57443      4.43012     11.62005        -0.099001      0.139131     -0.048947
      5.12235      4.43012     11.62005         0.099001      0.139131     -0.048947
      7.69679      4.44374     11.61370         0.000000     -0.000000     -0.001357
      3.84839      2.22187     11.53520         0.000000     -0.000000      0.635540
      3.84839      2.22187     13.28548         0.000000      0.000000     -0.007525
      3.84839      2.22187     14.45193         0.000000      0.000000      0.001171
 -----------------------------------------------------------------------------------
    total drift:                               -0.054420     -0.034271     -0.040627


--------------------------------------------------------------------------------------------------------



  FREE ENERGIE OF THE ION-ELECTRON SYSTEM (eV)
  ---------------------------------------------------
  free  energy   TOTEN  =      -143.85077943 eV

  energy  without entropy=     -143.85077943  energy(sigma->0) =     -143.85077943
 


--------------------------------------------------------------------------------------------------------


    POTLOK:  cpu time    0.0293: real time    0.0293


--------------------------------------------------------------------------------------------------------


 stress matrix after NEB project (eV)
     -3.08930      0.00000     -0.00000
      0.00000     -3.08930      0.00000
     -0.00000     -0.00000      3.19904
  FORCES: max atom, RMS     0.007525    0.001235
  FORCE total and by dimension    0.007616    0.007525
  Stress total and by dimension    5.414919    3.199040
     LOOP+:  cpu time   66.5596: real time   66.5755
 -----------------------------------------------------------------------------
|                                                                             |
|           W    W    AA    RRRRR   N    N  II  N    N   GGGG   !!!           |
|           W    W   A  A   R    R  NN   N  II  NN   N  G    G  !!!           |
|           W    W  A    A  R    R  N N  N  II  N N  N  G       !!!           |
|           W WW W  AAAAAA  RRRRR   N  N N  II  N  N N  G  GGG   !            |
|           WW  WW  A    A  R   R   N   NN  II  N   NN  G    G                |
|           W    W  A    A  R    R  N    N  II  N    N   GGGG   !!!           |
|                                                                             |
|     Tetrahedron method does not include variations of the Fermi             |
|     occupations, so forces and stress will be inaccurate. We suggest        |
|     using a different smearing scheme ISMEAR = 1 or 2 for metals in         |
|     relaxations.                                                            |
|                                                                             |
 -----------------------------------------------------------------------------

    4ORBIT:  cpu time    0.0000: real time    0.0000



 total charge

# of ion       s       p       d       tot
------------------------------------------
    1        0.446   0.284   9.188   9.918
    2        0.449   0.284   9.188   9.921
    3        0.449   0.284   9.188   9.921
    4        0.449   0.284   9.188   9.921
    5        0.448   0.287   9.185   9.920
    6        0.449   0.284   9.188   9.921
    7        0.449   0.284   9.188   9.921
    8        0.449   0.284   9.188   9.921
    9        0.446   0.285   9.188   9.919
   10        0.441   0.372   9.179   9.991
   11        0.444   0.369   9.181   9.994
   12        0.441   0.372   9.179   9.991
   13        0.444   0.369   9.181   9.994
   14        0.444   0.369   9.181   9.994
   15        0.438   0.373   9.180   9.990
   16        0.441   0.372   9.179   9.991
   17        0.438   0.373   9.180   9.990
   18        0.438   0.373   9.180   9.990
   19        0.442   0.372   9.182   9.996
   20        0.449   0.388   9.172  10.010
   21        0.449   0.388   9.172  10.010
   22        0.438   0.377   9.179   9.995
   23        0.449   0.388   9.172  10.010
   24        0.438   0.377   9.179   9.995
   25        0.442   0.372   9.182   9.996
   26        0.442   0.372   9.182   9.996
   27        0.438   0.377   9.179   9.995
   28        0.450   0.285   9.192   9.927
   29        0.444   0.289   9.194   9.927
   30        0.444   0.289   9.194   9.927
   31        0.444   0.289   9.194   9.927
   32        0.444   0.289   9.194   9.927
   33        0.444   0.289   9.194   9.927
   34        0.444   0.289   9.194   9.927
   35        0.449   0.285   9.192   9.926
   36        0.502   0.612   8.400   9.515
   37        0.964   1.543   0.000   2.506
   38        1.615   3.526   0.000   5.141
--------------------------------------------------
tot         18.632  17.304 329.855 365.791
 
 BZINTS: Fermi energy:    0.160907;  405.000000 electrons
         Band energy:-0.113048E+04;  BLOECHL correction:   -0.059525

 total amount of memory used by VASP MPI-rank0   105020. kBytes
=======================================================================

   base      :      30000. kBytes
   nonlr-proj:      17631. kBytes
   fftplans  :       2916. kBytes
   grid      :      12878. kBytes
   one-center:        590. kBytes
   wavefun   :      41005. kBytes
 
  
  
 General timing and accounting informations for this job:
 ========================================================
  
                  Total CPU time used (sec):       72.517
                            User time (sec):       69.845
                          System time (sec):        2.672
                         Elapsed time (sec):       72.977
  
                   Maximum memory used (kb):      342360.
                   Average memory used (kb):          N/A
  
                          Minor page faults:        76320
                          Major page faults:            0
                 Voluntary context switches:         5229
