PROCAR new format
# of k-points:   10         # of bands:  252         # of ions:   38

 k-point     1 :    0.00000000 0.00000000 0.00000000     weight = 0.01562500

band     1 # energy  -23.48086389 # occ.  2.00000000
 
ion      s      p      d    tot
    1  0.000  0.000  0.000  0.000
    2  0.000  0.000  0.000  0.000
    3  0.000  0.000  0.000  0.000
    4  0.000  0.000  0.000  0.000
    5  0.000  0.000  0.000  0.000
    6  0.000  0.000  0.000  0.000
    7  0.000  0.000  0.000  0.000
    8  0.000  0.000  0.000  0.000
    9  0.000  0.000  0.000  0.000
   10  0.000  0.000  0.000  0.000
   11  0.000  0.000  0.000  0.000
   12  0.000  0.000  0.000  0.000
   13  0.000  0.000  0.000  0.000
   14  0.000  0.000  0.000  0.000
   15  0.000  0.000  0.000  0.000
   16  0.000  0.000  0.000  0.000
   17  0.000  0.000  0.000  0.000
   18  0.000  0.000  0.000  0.000
   19  0.000  0.000  0.000  0.000
   20  0.000  0.000  0.000  0.000
   21  0.000  0.000  0.000  0.000
   22  0.000  0.000  0.000  0.000
   23  0.000  0.000  0.000  0.000
   24  0.000  0.000  0.000  0.000
   25  0.000  0.000  0.000  0.000
   26  0.000  0.000  0.000  0.000
   27  0.000  0.000  0.000  0.000
   28  0.000  0.000  0.000  0.000
   29  0.000  0.000  0.000  0.000
   30  0.000  0.000  0.000  0.000
   31  0.000  0.000  0.000  0.000
   32  0.000  0.000  0.000  0.000
   33  0.000  0.000  0.000  0.000
   34  0.000  0.000  0.000  0.000
   35  0.000  0.000  0.000  0.000
   36  0.000  0.000  0.000  0.000
   37  0.158  0.115  0.000  0.274
   38  0.637  0.095  0.000  0.732
tot    0.796  0.210  0.000  1.006
 
band     2 # energy   -9.40557155 # occ.  2.00000000
 
ion      s      p      d    tot
    1  0.000  0.000  0.000  0.000
    2  0.000  0.000  0.000  0.000
    3  0.000  0.000  0.000  0.000
    4  0.000  0.000  0.000  0.000
    5  0.000  0.000  0.000  0.000
    6  0.000  0.000  0.000  0.000
    7  0.000  0.000  0.000  0.000
    8  0.000  0.000  0.000  0.000
    9  0.000  0.000  0.000  0.000
   10  0.000  0.000  0.000  0.000
   11  0.000  0.000  0.000  0.000
   12  0.000  0.000  0.000  0.000
   13  0.000  0.000  0.000  0.000
   14  0.000  0.000  0.000  0.000
   15  0.000  0.000  0.000  0.000
   16  0.000  0.000  0.000  0.000
   17  0.000  0.000  0.000  0.000
   18  0.000  0.000  0.000  0.000
   19  0.001  0.000  0.000  0.001
   20  0.003  0.000  0.000  0.003
   21  0.003  0.000  0.000  0.003
   22  0.001  0.000  0.000  0.001
   23  0.003  0.000  0.000  0.003
   24  0.001  0.000  0.000  0.001
   25  0.001  0.000  0.000  0.001
   26  0.001  0.000  0.000  0.001
   27  0.001  0.000  0.000  0.001
   28  0.001  0.000  0.000  0.001
   29  0.003  0.000  0.000  0.004
   30  0.003  0.000  0.000  0.004
   31  0.003  0.000  0.000  0.004
   32  0.003  0.000  0.000  0.004
   33  0.003  0.000  0.000  0.004
   34  0.003  0.000  0.000  0.004
   35  0.001  0.000  0.000  0.001
   36  0.069  0.030  0.047  0.146
   37  0.270  0.013  0.000  0.284
   38  0.123  0.162  0.000  0.284
tot    0.499  0.208  0.049  0.757
 
band     3 # energy   -8.58824821 # occ.  2.00000000
 
ion      s      p      d    tot
    1  0.007  0.001  0.000  0.008
    2  0.007  0.001  0.000  0.007
    3  0.007  0.001  0.000  0.007
    4  0.007  0.001  0.000  0.007
    5  0.007  0.001  0.000  0.007
    6  0.007  0.001  0.000  0.007
    7  0.007  0.001  0.000  0.007
    8  0.007  0.001  0.000  0.007
    9  0.007  0.001  0.000  0.007
   10  0.024  0.000  0.000  0.025
   11  0.024  0.000  0.000  0.024
   12  0.024  0.000  0.000  0.025
   13  0.024  0.000  0.000  0.024
   14  0.024  0.000  0.000  0.024
   15  0.024  0.000  0.000  0.025
   16  0.024  0.000  0.000  0.025
   17  0.024  0.000  0.000  0.025
   18  0.024  0.000  0.000  0.025
   19  0.023  0.000  0.000  0.024
   20  0.022  0.000  0.000  0.023
   21  0.022  0.000  0.000  0.023
   22  0.023  0.000  0.000  0.024
   23  0.022  0.000  0.000  0.023
   24  0.023  0.000  0.000  0.024
   25  0.023  0.000  0.000  0.024
   26  0.023  0.000  0.000  0.024
   27  0.023  0.000  0.000  0.024
   28  0.006  0.001  0.000  0.007
   29  0.005  0.001  0.000  0.006
   30  0.005  0.001  0.000  0.006
   31  0.005  0.001  0.000  0.006
   32  0.005  0.001  0.000  0.006
   33  0.005  0.001  0.000  0.006
   34  0.005  0.001  0.000  0.006
   35  0.006  0.001  0.000  0.007
   36  0.002  0.004  0.001  0.006
   37  0.013  0.000  0.000  0.013
   38  0.009  0.021  0.000  0.031
tot    0.552  0.041  0.002  0.596
 
band     4 # energy   -7.36886005 # occ.  2.00000000
 
ion      s      p      d    tot
    1  0.015  0.001  0.000  0.016
    2  0.015  0.001  0.000  0.016
    3  0.015  0.001  0.000  0.016
    4  0.015  0.001  0.000  0.016
    5  0.015  0.001  0.000  0.016
    6  0.015  0.001  0.000  0.016
    7  0.015  0.001  0.000  0.016
    8  0.015  0.001  0.000  0.016
    9  0.015  0.001  0.000  0.016
   10  0.009  0.002  0.000  0.012
   11  0.009  0.002  0.000  0.011
   12  0.009  0.002  0.000  0.012
   13  0.009  0.002  0.000  0.011
   14  0.009  0.002  0.000  0.011
   15  0.010  0.002  0.000  0.012
   16  0.009  0.002  0.000  0.012
   17  0.010  0.002  0.000  0.012
   18  0.010  0.002  0.000  0.012
   19  0.007  0.002  0.000  0.009
   20  0.008  0.002  0.000  0.011
   21  0.008  0.002  0.000  0.011
   22  0.007  0.002  0.000  0.009
   23  0.008  0.002  0.000  0.011
   24  0.007  0.002  0.000  0.009
   25  0.007  0.002  0.000  0.009
   26  0.007  0.002  0.000  0.009
   27  0.007  0.002  0.000  0.009
   28  0.014  0.001  0.000  0.015
   29  0.015  0.001  0.000  0.016
   30  0.015  0.001  0.000  0.016
   31  0.015  0.001  0.000  0.016
   32  0.015  0.001  0.000  0.016
   33  0.015  0.001  0.000  0.016
   34  0.015  0.001  0.000  0.016
   35  0.014  0.001  0.000  0.015
   36  0.033  0.000  0.002  0.035
   37  0.001  0.031  0.000  0.033
   38  0.014  0.087  0.000  0.101
tot    0.452  0.162  0.017  0.631
 
band     5 # energy   -6.67758874 # occ.  2.00000000
 
ion      s      p      d    tot
    1  0.005  0.000  0.000  0.005
    2  0.005  0.000  0.000  0.005
    3  0.005  0.000  0.000  0.005
    4  0.005  0.000  0.000  0.005
    5  0.006  0.000  0.000  0.006
    6  0.005  0.000  0.000  0.005
    7  0.005  0.000  0.000  0.005
    8  0.005  0.000  0.000  0.005
    9  0.004  0.000  0.000  0.005
   10  0.000  0.001  0.000  0.002
   11  0.001  0.001  0.000  0.002
   12  0.000  0.001  0.000  0.002
   13  0.001  0.001  0.000  0.002
   14  0.001  0.001  0.000  0.002
   15  0.000  0.001  0.000  0.002
   16  0.000  0.001  0.000  0.002
   17  0.000  0.001  0.000  0.002
   18  0.000  0.001  0.000  0.002
   19  0.009  0.000  0.001  0.010
   20  0.001  0.001  0.002  0.004
   21  0.001  0.001  0.002  0.004
   22  0.008  0.000  0.001  0.009
   23  0.001  0.001  0.002  0.004
   24  0.008  0.000  0.001  0.009
   25  0.009  0.000  0.001  0.010
   26  0.009  0.000  0.001  0.010
   27  0.008  0.000  0.001  0.009
   28  0.004  0.001  0.000  0.005
   29  0.000  0.002  0.001  0.003
   30  0.000  0.002  0.001  0.003
   31  0.000  0.002  0.001  0.003
   32  0.000  0.002  0.001  0.003
   33  0.000  0.002  0.001  0.003
   34  0.000  0.002  0.001  0.003
   35  0.004  0.001  0.000  0.005
   36  0.056  0.029  0.081  0.166
   37  0.012  0.184  0.000  0.196
   38  0.023  0.256  0.000  0.279
tot    0.204  0.496  0.103  0.804
 
band     6 # energy   -6.40418561 # occ.  2.00000000
 
ion      s      p      d    tot
    1  0.000  0.000  0.000  0.000
    2  0.000  0.000  0.000  0.000
    3  0.000  0.000  0.000  0.000
    4  0.000  0.000  0.000  0.000
    5  0.000  0.000  0.000  0.000
    6  0.000  0.000  0.000  0.000
    7  0.000  0.000  0.000  0.000
    8  0.000  0.000  0.000  0.000
    9  0.000  0.000  0.000  0.000
   10  0.000  0.000  0.000  0.000
   11  0.000  0.000  0.000  0.000
   12  0.000  0.000  0.000  0.000
   13  0.000  0.000  0.000  0.000
   14  0.000  0.000  0.000  0.000
   15  0.000  0.000  0.000  0.000
   16  0.000  0.000  0.000  0.000
   17  0.000  0.000  0.000  0.000
   18  0.000  0.000  0.000  0.000
   19  0.000  0.000  0.000  0.000
   20  0.000  0.000  0.000  0.000
   21  0.000  0.000  0.000  0.000
   22  0.000  0.000  0.000  0.000
   23  0.000  0.000  0.000  0.000
   24  0.000  0.000  0.000  0.000
   25  0.000  0.000  0.000  0.000
   26  0.000  0.000  0.000  0.000
   27  0.000  0.000  0.000  0.000
   28  0.000  0.000  0.000  0.000
   29  0.002  0.001  0.001  0.003
   30  0.000  0.000  0.000  0.000
   31  0.002  0.001  0.001  0.003
   32  0.002  0.001  0.001  0.003
   33  0.000  0.000  0.000  0.000
   34  0.002  0.001  0.001  0.003
   35  0.000  0.000  0.000  0.000
   36  0.000  0.006  0.020  0.025
   37  0.000  0.180  0.000  0.180
   38  0.000  0.449  0.000  0.449
tot    0.008  0.637  0.024  0.669
 
band     7 # energy   -6.40407005 # occ.  2.00000000
 
ion      s      p      d    tot
    1  0.000  0.000  0.000  0.000
    2  0.000  0.000  0.000  0.000
    3  0.000  0.000  0.000  0.000
    4  0.000  0.000  0.000  0.000
    5  0.000  0.000  0.000  0.000
    6  0.000  0.000  0.000  0.000
    7  0.000  0.000  0.000  0.000
    8  0.000  0.000  0.000  0.000
    9  0.000  0.000  0.000  0.000
   10  0.000  0.000  0.000  0.000
   11  0.000  0.000  0.000  0.000
   12  0.000  0.000  0.000  0.000
   13  0.000  0.000  0.000  0.000
   14  0.000  0.000  0.000  0.000
   15  0.000  0.000  0.000  0.000
   16  0.000  0.000  0.000  0.000
   17  0.000  0.000  0.000  0.000
   18  0.000  0.000  0.000  0.000
   19  0.000  0.000  0.000  0.000
   20  0.000  0.000  0.000  0.000
   21  0.000  0.000  0.000  0.000
   22  0.000  0.000  0.000  0.000
   23  0.000  0.000  0.000  0.000
   24  0.000  0.000  0.000  0.000
   25  0.000  0.000  0.000  0.000
   26  0.000  0.000  0.000  0.000
   27  0.000  0.000  0.000  0.000
   28  0.000  0.000  0.000  0.000
   29  0.001  0.000  0.000  0.001
   30  0.002  0.001  0.001  0.004
   31  0.001  0.000  0.000  0.001
   32  0.001  0.000  0.000  0.001
   33  0.002  0.001  0.001  0.004
   34  0.001  0.000  0.000  0.001
   35  0.000  0.000  0.000  0.000
   36  0.000  0.006  0.020  0.025
   37  0.000  0.180  0.000  0.180
   38  0.000  0.449  0.000  0.449
tot    0.008  0.637  0.024  0.669
 
band     8 # energy   -5.64627397 # occ.  2.00000000
 
ion      s      p      d    tot
    1  0.014  0.000  0.004  0.018
    2  0.010  0.001  0.005  0.016
    3  0.010  0.001  0.005  0.016
    4  0.010  0.001  0.005  0.016
    5  0.000  0.002  0.006  0.008
    6  0.010  0.001  0.005  0.016
    7  0.010  0.001  0.005  0.016
    8  0.010  0.001  0.005  0.016
    9  0.026  0.000  0.002  0.028
   10  0.001  0.003  0.005  0.010
   11  0.024  0.007  0.001  0.031
   12  0.001  0.003  0.005  0.010
   13  0.024  0.007  0.001  0.031
   14  0.024  0.007  0.001  0.031
   15  0.002  0.002  0.007  0.011
   16  0.001  0.003  0.005  0.010
   17  0.002  0.002  0.007  0.011
   18  0.002  0.002  0.007  0.011
   19  0.000  0.002  0.008  0.010
   20  0.028  0.006  0.002  0.036
   21  0.028  0.006  0.002  0.035
   22  0.000  0.005  0.004  0.009
   23  0.028  0.006  0.002  0.035
   24  0.000  0.005  0.004  0.009
   25  0.000  0.002  0.008  0.010
   26  0.000  0.002  0.008  0.010
   27  0.000  0.005  0.004  0.009
   28  0.021  0.000  0.002  0.023
   29  0.010  0.001  0.006  0.016
   30  0.010  0.001  0.006  0.016
   31  0.010  0.001  0.006  0.016
   32  0.010  0.001  0.006  0.016
   33  0.010  0.001  0.006  0.016
   34  0.010  0.001  0.006  0.016
   35  0.026  0.000  0.003  0.029
   36  0.001  0.002  0.013  0.015
   37  0.000  0.000  0.000  0.001
   38  0.000  0.000  0.000  0.000
tot    0.369  0.087  0.177  0.633
 
band     9 # energy   -5.61779728 # occ.  2.00000000
 
ion      s      p      d    tot
    1  0.000  0.002  0.005  0.007
    2  0.009  0.002  0.002  0.013
    3  0.000  0.001  0.002  0.003
    4  0.009  0.002  0.002  0.013
    5  0.000  0.003  0.004  0.007
    6  0.005  0.002  0.002  0.009
    7  0.001  0.001  0.002  0.003
    8  0.005  0.002  0.002  0.009
    9  0.000  0.000  0.002  0.002
   10  0.051  0.005  0.003  0.059
   11  0.011  0.009  0.005  0.025
   12  0.012  0.001  0.013  0.027
   13  0.010  0.009  0.005  0.024
   14  0.040  0.001  0.007  0.048
   15  0.000  0.007  0.006  0.012
   16  0.014  0.001  0.013  0.028
   17  0.000  0.007  0.006  0.012
   18  0.001  0.002  0.004  0.007
   19  0.004  0.010  0.003  0.017
   20  0.065  0.004  0.005  0.074
   21  0.016  0.004  0.012  0.032
   22  0.004  0.003  0.011  0.018
   23  0.017  0.004  0.012  0.033
   24  0.017  0.004  0.002  0.023
   25  0.015  0.000  0.007  0.022
   26  0.003  0.011  0.003  0.017
   27  0.005  0.003  0.010  0.018
   28  0.000  0.002  0.003  0.005
   29  0.010  0.003  0.003  0.016
   30  0.001  0.001  0.002  0.005
   31  0.010  0.003  0.003  0.016
   32  0.004  0.001  0.002  0.008
   33  0.002  0.001  0.002  0.005
   34  0.004  0.002  0.002  0.008
   35  0.000  0.000  0.003  0.004
   36  0.000  0.004  0.008  0.012
   37  0.000  0.000  0.000  0.000
   38  0.000  0.002  0.000  0.002
tot    0.346  0.118  0.180  0.644
 
band    10 # energy   -5.61772897 # occ.  2.00000000
 
ion      s      p      d    tot
    1  0.000  0.002  0.005  0.007
    2  0.001  0.001  0.002  0.004
    3  0.009  0.002  0.002  0.014
    4  0.001  0.001  0.002  0.004
    5  0.000  0.003  0.004  0.007
    6  0.005  0.002  0.002  0.008
    7  0.009  0.002  0.002  0.014
    8  0.004  0.001  0.002  0.008
    9  0.000  0.000  0.002  0.002
   10  0.000  0.000  0.017  0.017
   11  0.030  0.004  0.006  0.040
   12  0.039  0.004  0.006  0.049
   13  0.031  0.004  0.006  0.041
   14  0.000  0.011  0.005  0.017
   15  0.000  0.003  0.005  0.008
   16  0.038  0.004  0.006  0.048
   17  0.000  0.003  0.005  0.008
   18  0.000  0.008  0.006  0.014
   19  0.010  0.004  0.005  0.020
   20  0.000  0.004  0.014  0.018
   21  0.050  0.004  0.007  0.061
   22  0.014  0.004  0.005  0.022
   23  0.048  0.004  0.007  0.059
   24  0.000  0.003  0.013  0.016
   25  0.000  0.014  0.001  0.015
   26  0.011  0.003  0.005  0.020
   27  0.013  0.004  0.005  0.022
   28  0.000  0.002  0.003  0.005
   29  0.000  0.001  0.002  0.003
   30  0.009  0.002  0.003  0.014
   31  0.000  0.001  0.002  0.003
   32  0.007  0.002  0.003  0.011
   33  0.009  0.002  0.003  0.014
   34  0.006  0.002  0.003  0.011
   35  0.000  0.000  0.003  0.004
   36  0.000  0.004  0.008  0.012
   37  0.000  0.000  0.000  0.000
   38  0.000  0.002  0.000  0.002
tot    0.346  0.118  0.180  0.644
 
band    11 # energy   -5.61453569 # occ.  2.00000000
 
ion      s      p      d    tot
    1  0.020  0.003  0.001  0.024
    2  0.000  0.002  0.004  0.006
    3  0.000  0.002  0.004  0.006
    4  0.000  0.002  0.004  0.006
    5  0.001  0.000  0.000  0.001
    6  0.000  0.002  0.004  0.006
    7  0.000  0.002  0.004  0.006
    8  0.000  0.002  0.004  0.006
    9  0.010  0.002  0.000  0.012
   10  0.030  0.005  0.006  0.041
   11  0.004  0.000  0.011  0.016
   12  0.029  0.005  0.006  0.040
   13  0.004  0.000  0.011  0.016
   14  0.004  0.000  0.011  0.015
   15  0.013  0.008  0.003  0.025
   16  0.029  0.005  0.006  0.040
   17  0.013  0.008  0.003  0.025
   18  0.014  0.008  0.003  0.025
   19  0.022  0.009  0.002  0.034
   20  0.000  0.002  0.010  0.013
   21  0.000  0.002  0.010  0.012
   22  0.026  0.003  0.009  0.038
   23  0.000  0.002  0.010  0.012
   24  0.025  0.003  0.009  0.037
   25  0.021  0.009  0.002  0.032
   26  0.022  0.009  0.002  0.034
   27  0.026  0.003  0.009  0.038
   28  0.019  0.003  0.001  0.022
   29  0.000  0.002  0.004  0.006
   30  0.000  0.002  0.004  0.006
   31  0.000  0.002  0.004  0.006
   32  0.000  0.002  0.004  0.006
   33  0.000  0.002  0.004  0.006
   34  0.000  0.002  0.004  0.006
   35  0.014  0.003  0.001  0.017
   36  0.000  0.000  0.000  0.000
   37  0.000  0.000  0.000  0.000
   38  0.000  0.000  0.000  0.000
tot    0.347  0.116  0.177  0.640
 
band    12 # energy   -5.60898634 # occ.  2.00000000
 
ion      s      p      d    tot
    1  0.000  0.001  0.003  0.004
    2  0.009  0.002  0.002  0.014
    3  0.000  0.001  0.002  0.003
    4  0.009  0.002  0.002  0.014
    5  0.000  0.000  0.003  0.004
    6  0.005  0.002  0.002  0.010
    7  0.000  0.001  0.002  0.003
    8  0.006  0.002  0.002  0.010
    9  0.000  0.003  0.006  0.009
   10  0.000  0.013  0.002  0.015
   11  0.015  0.004  0.005  0.024
   12  0.008  0.003  0.005  0.017
   13  0.016  0.004  0.005  0.024
   14  0.000  0.002  0.013  0.015
   15  0.046  0.004  0.007  0.057
   16  0.008  0.004  0.005  0.017
   17  0.047  0.004  0.007  0.057
   18  0.000  0.005  0.013  0.018
   19  0.037  0.004  0.006  0.047
   20  0.000  0.010  0.005  0.015
   21  0.000  0.003  0.005  0.008
   22  0.035  0.004  0.007  0.045
   23  0.000  0.004  0.005  0.008
   24  0.000  0.011  0.006  0.017
   25  0.000  0.000  0.017  0.017
   26  0.038  0.004  0.006  0.047
   27  0.035  0.004  0.006  0.045
   28  0.000  0.002  0.005  0.007
   29  0.010  0.003  0.003  0.015
   30  0.001  0.001  0.002  0.005
   31  0.010  0.003  0.003  0.015
   32  0.004  0.001  0.002  0.008
   33  0.001  0.001  0.002  0.005
   34  0.004  0.001  0.002  0.008
   35  0.000  0.003  0.005  0.008
   36  0.000  0.000  0.002  0.002
   37  0.000  0.000  0.000  0.000
   38  0.000  0.001  0.000  0.001
tot    0.346  0.117  0.177  0.640
 
band    13 # energy   -5.60892960 # occ.  2.00000000
 
ion      s      p      d    tot
    1  0.000  0.001  0.003  0.004
    2  0.001  0.001  0.002  0.004
    3  0.010  0.002  0.002  0.014
    4  0.001  0.001  0.002  0.004
    5  0.000  0.000  0.004  0.004
    6  0.005  0.002  0.002  0.008
    7  0.010  0.002  0.002  0.014
    8  0.005  0.002  0.002  0.008
    9  0.000  0.003  0.006  0.009
   10  0.010  0.000  0.006  0.017
   11  0.005  0.002  0.011  0.018
   12  0.003  0.010  0.003  0.016
   13  0.005  0.002  0.011  0.018
   14  0.022  0.004  0.002  0.028
   15  0.016  0.005  0.011  0.031
   16  0.003  0.010  0.003  0.016
   17  0.015  0.005  0.011  0.031
   18  0.061  0.003  0.005  0.069
   19  0.012  0.001  0.013  0.027
   20  0.000  0.001  0.005  0.006
   21  0.000  0.008  0.005  0.013
   22  0.011  0.009  0.006  0.026
   23  0.000  0.008  0.005  0.013
   24  0.048  0.001  0.007  0.056
   25  0.050  0.005  0.002  0.057
   26  0.012  0.001  0.014  0.027
   27  0.012  0.009  0.006  0.027
   28  0.000  0.002  0.005  0.007
   29  0.000  0.001  0.002  0.003
   30  0.009  0.002  0.002  0.014
   31  0.000  0.001  0.002  0.003
   32  0.007  0.002  0.003  0.011
   33  0.009  0.002  0.002  0.014
   34  0.006  0.002  0.003  0.011
   35  0.000  0.003  0.005  0.008
   36  0.000  0.000  0.002  0.003
   37  0.000  0.000  0.000  0.000
   38  0.000  0.001  0.000  0.001
tot    0.346  0.117  0.177  0.640
 
band    14 # energy   -5.47398271 # occ.  2.00000000
 
ion      s      p      d    tot
    1  0.001  0.001  0.004  0.005
    2  0.006  0.002  0.007  0.015
    3  0.006  0.002  0.007  0.015
    4  0.006  0.002  0.007  0.015
    5  0.044  0.002  0.001  0.047
    6  0.006  0.002  0.007  0.015
    7  0.006  0.002  0.007  0.015
    8  0.006  0.002  0.007  0.015
    9  0.000  0.002  0.007  0.009
   10  0.007  0.004  0.007  0.018
   11  0.009  0.007  0.006  0.021
   12  0.007  0.004  0.007  0.018
   13  0.009  0.007  0.006  0.021
   14  0.009  0.007  0.006  0.021
   15  0.026  0.002  0.009  0.037
   16  0.007  0.004  0.007  0.018
   17  0.026  0.002  0.009  0.037
   18  0.026  0.002  0.009  0.037
   19  0.007  0.003  0.005  0.015
   20  0.008  0.002  0.006  0.017
   21  0.008  0.002  0.006  0.017
   22  0.005  0.006  0.004  0.014
   23  0.008  0.002  0.006  0.017
   24  0.005  0.006  0.004  0.014
   25  0.007  0.003  0.005  0.015
   26  0.007  0.003  0.005  0.015
   27  0.005  0.006  0.004  0.014
   28  0.004  0.000  0.005  0.009
   29  0.007  0.000  0.004  0.011
   30  0.007  0.000  0.004  0.011
   31  0.007  0.000  0.004  0.011
   32  0.007  0.000  0.004  0.011
   33  0.007  0.000  0.004  0.011
   34  0.007  0.000  0.004  0.011
   35  0.003  0.000  0.003  0.007
   36  0.003  0.011  0.028  0.041
   37  0.006  0.015  0.000  0.021
   38  0.000  0.010  0.000  0.010
tot    0.323  0.121  0.223  0.667
 
band    15 # energy   -4.84677487 # occ.  2.00000000
 
ion      s      p      d    tot
    1  0.009  0.000  0.008  0.017
    2  0.004  0.001  0.009  0.014
    3  0.004  0.001  0.009  0.014
    4  0.004  0.001  0.009  0.014
    5  0.000  0.002  0.009  0.011
    6  0.004  0.001  0.009  0.014
    7  0.004  0.001  0.009  0.014
    8  0.004  0.001  0.009  0.014
    9  0.011  0.000  0.006  0.017
   10  0.004  0.000  0.025  0.029
   11  0.012  0.001  0.020  0.034
   12  0.004  0.000  0.025  0.029
   13  0.012  0.001  0.020  0.033
   14  0.012  0.001  0.020  0.033
   15  0.002  0.000  0.021  0.023
   16  0.004  0.000  0.025  0.029
   17  0.002  0.000  0.021  0.023
   18  0.002  0.000  0.021  0.023
   19  0.003  0.000  0.020  0.023
   20  0.012  0.001  0.023  0.036
   21  0.012  0.001  0.023  0.036
   22  0.004  0.000  0.025  0.028
   23  0.012  0.001  0.023  0.036
   24  0.004  0.000  0.025  0.028
   25  0.003  0.000  0.020  0.023
   26  0.003  0.000  0.020  0.023
   27  0.004  0.000  0.025  0.028
   28  0.008  0.000  0.006  0.015
   29  0.004  0.001  0.009  0.014
   30  0.004  0.001  0.009  0.014
   31  0.004  0.001  0.009  0.014
   32  0.004  0.001  0.009  0.014
   33  0.004  0.001  0.009  0.014
   34  0.004  0.001  0.009  0.014
   35  0.011  0.000  0.007  0.018
   36  0.000  0.003  0.011  0.014
   37  0.000  0.000  0.000  0.000
   38  0.000  0.000  0.000  0.000
tot    0.200  0.021  0.553  0.773
 
band    16 # energy   -4.84155168 # occ.  2.00000000
 
ion      s      p      d    tot
    1  0.033  0.004  0.001  0.037
    2  0.000  0.003  0.010  0.014
    3  0.000  0.003  0.010  0.013
    4  0.000  0.003  0.010  0.014
    5  0.000  0.000  0.000  0.000
    6  0.000  0.003  0.010  0.013
    7  0.000  0.003  0.010  0.013
    8  0.000  0.003  0.010  0.013
    9  0.032  0.003  0.000  0.036
   10  0.010  0.004  0.011  0.024
   11  0.001  0.000  0.015  0.016
   12  0.010  0.004  0.011  0.024
   13  0.001  0.000  0.015  0.016
   14  0.001  0.000  0.015  0.015
   15  0.006  0.004  0.018  0.028
   16  0.010  0.004  0.011  0.024
   17  0.006  0.004  0.018  0.028
   18  0.006  0.004  0.018  0.028
   19  0.006  0.004  0.018  0.027
   20  0.000  0.000  0.015  0.015
   21  0.000  0.000  0.015  0.015
   22  0.010  0.004  0.010  0.024
   23  0.000  0.000  0.015  0.015
   24  0.010  0.003  0.010  0.024
   25  0.006  0.004  0.018  0.027
   26  0.006  0.004  0.018  0.027
   27  0.010  0.004  0.010  0.024
   28  0.034  0.003  0.000  0.038
   29  0.000  0.003  0.010  0.013
   30  0.000  0.003  0.010  0.013
   31  0.000  0.003  0.010  0.013
   32  0.000  0.003  0.010  0.013
   33  0.000  0.003  0.010  0.013
   34  0.000  0.003  0.010  0.013
   35  0.029  0.004  0.001  0.034
   36  0.000  0.000  0.000  0.000
   37  0.000  0.000  0.000  0.000
   38  0.000  0.000  0.000  0.000
tot    0.229  0.094  0.382  0.704
 
band    17 # energy   -4.83739583 # occ.  2.00000000
 
ion      s      p      d    tot
    1  0.000  0.001  0.011  0.012
    2  0.007  0.002  0.005  0.014
    3  0.022  0.004  0.006  0.031
    4  0.006  0.002  0.005  0.013
    5  0.000  0.006  0.009  0.015
    6  0.004  0.002  0.005  0.011
    7  0.022  0.004  0.006  0.031
    8  0.005  0.002  0.005  0.012
    9  0.000  0.002  0.012  0.014
   10  0.000  0.001  0.016  0.017
   11  0.017  0.004  0.010  0.031
   12  0.008  0.003  0.011  0.022
   13  0.016  0.004  0.011  0.031
   14  0.000  0.001  0.026  0.028
   15  0.002  0.001  0.011  0.013
   16  0.008  0.003  0.011  0.022
   17  0.001  0.001  0.011  0.014
   18  0.000  0.004  0.021  0.025
   19  0.000  0.001  0.011  0.012
   20  0.000  0.002  0.030  0.032
   21  0.013  0.004  0.011  0.028
   22  0.009  0.003  0.011  0.024
   23  0.014  0.004  0.010  0.028
   24  0.000  0.000  0.016  0.016
   25  0.000  0.003  0.019  0.023
   26  0.000  0.001  0.011  0.012
   27  0.010  0.004  0.011  0.024
   28  0.000  0.001  0.012  0.013
   29  0.008  0.002  0.005  0.015
   30  0.021  0.004  0.006  0.030
   31  0.007  0.002  0.005  0.014
   32  0.003  0.002  0.005  0.010
   33  0.020  0.004  0.006  0.030
   34  0.004  0.002  0.005  0.011
   35  0.000  0.002  0.009  0.011
   36  0.000  0.007  0.010  0.017
   37  0.000  0.000  0.000  0.000
   38  0.000  0.002  0.000  0.002
tot    0.226  0.097  0.385  0.709
 
band    18 # energy   -4.83735991 # occ.  2.00000000
 
ion      s      p      d    tot
    1  0.000  0.001  0.010  0.012
    2  0.015  0.003  0.005  0.024
    3  0.000  0.002  0.005  0.007
    4  0.016  0.003  0.005  0.025
    5  0.000  0.006  0.009  0.015
    6  0.017  0.003  0.006  0.026
    7  0.000  0.002  0.005  0.007
    8  0.016  0.003  0.006  0.025
    9  0.000  0.002  0.012  0.014
   10  0.011  0.004  0.009  0.024
   11  0.005  0.002  0.022  0.029
   12  0.003  0.002  0.014  0.019
   13  0.006  0.002  0.021  0.029
   14  0.022  0.005  0.005  0.032
   15  0.000  0.003  0.018  0.021
   16  0.002  0.001  0.015  0.018
   17  0.001  0.003  0.017  0.021
   18  0.002  0.000  0.008  0.010
   19  0.000  0.003  0.017  0.020
   20  0.018  0.004  0.005  0.027
   21  0.005  0.002  0.023  0.030
   22  0.003  0.001  0.014  0.019
   23  0.004  0.002  0.024  0.031
   24  0.012  0.004  0.010  0.027
   25  0.001  0.000  0.008  0.008
   26  0.000  0.003  0.017  0.019
   27  0.003  0.001  0.014  0.018
   28  0.000  0.001  0.012  0.013
   29  0.013  0.003  0.006  0.022
   30  0.000  0.002  0.005  0.007
   31  0.014  0.003  0.006  0.023
   32  0.018  0.003  0.006  0.027
   33  0.000  0.002  0.005  0.007
   34  0.017  0.003  0.005  0.026
   35  0.000  0.002  0.009  0.011
   36  0.000  0.007  0.009  0.017
   37  0.000  0.000  0.000  0.000
   38  0.000  0.002  0.000  0.002
tot    0.226  0.097  0.385  0.709
 
band    19 # energy   -4.83126260 # occ.  2.00000000
 
ion      s      p      d    tot
    1  0.000  0.005  0.011  0.016
    2  0.006  0.002  0.005  0.014
    3  0.022  0.004  0.006  0.031
    4  0.006  0.002  0.005  0.013
    5  0.000  0.000  0.012  0.012
    6  0.005  0.002  0.005  0.012
    7  0.022  0.004  0.006  0.031
    8  0.005  0.002  0.005  0.012
    9  0.000  0.004  0.008  0.013
   10  0.012  0.002  0.005  0.019
   11  0.000  0.002  0.014  0.016
   12  0.003  0.003  0.022  0.028
   13  0.000  0.002  0.014  0.016
   14  0.001  0.001  0.010  0.012
   15  0.005  0.001  0.018  0.024
   16  0.003  0.003  0.022  0.028
   17  0.005  0.001  0.018  0.025
   18  0.020  0.006  0.007  0.033
   19  0.005  0.001  0.019  0.026
   20  0.003  0.001  0.010  0.014
   21  0.001  0.002  0.014  0.016
   22  0.002  0.003  0.022  0.027
   23  0.001  0.002  0.014  0.017
   24  0.009  0.002  0.006  0.016
   25  0.021  0.006  0.006  0.033
   26  0.005  0.002  0.019  0.026
   27  0.002  0.003  0.022  0.027
   28  0.000  0.005  0.008  0.013
   29  0.007  0.002  0.005  0.015
   30  0.021  0.004  0.005  0.029
   31  0.007  0.002  0.005  0.014
   32  0.003  0.002  0.005  0.011
   33  0.021  0.004  0.005  0.029
   34  0.004  0.002  0.005  0.011
   35  0.000  0.004  0.011  0.015
   36  0.000  0.000  0.009  0.009
   37  0.000  0.000  0.000  0.000
   38  0.000  0.000  0.000  0.000
tot    0.227  0.094  0.383  0.704
 
band    20 # energy   -4.83122082 # occ.  2.00000000
 
ion      s      p      d    tot
    1  0.000  0.005  0.011  0.016
    2  0.015  0.003  0.005  0.024
    3  0.000  0.002  0.005  0.007
    4  0.016  0.003  0.005  0.024
    5  0.000  0.000  0.012  0.012
    6  0.017  0.003  0.006  0.026
    7  0.000  0.002  0.005  0.007
    8  0.017  0.003  0.006  0.026
    9  0.000  0.004  0.008  0.013
   10  0.000  0.003  0.028  0.031
   11  0.001  0.001  0.011  0.013
   12  0.009  0.002  0.011  0.023
   13  0.001  0.001  0.011  0.013
   14  0.000  0.003  0.015  0.018
   15  0.015  0.004  0.011  0.030
   16  0.009  0.002  0.011  0.022
   17  0.015  0.004  0.011  0.030
   18  0.000  0.000  0.021  0.021
   19  0.016  0.004  0.011  0.031
   20  0.000  0.002  0.015  0.017
   21  0.002  0.002  0.011  0.015
   22  0.006  0.002  0.011  0.020
   23  0.002  0.002  0.011  0.015
   24  0.000  0.003  0.027  0.030
   25  0.000  0.000  0.023  0.023
   26  0.016  0.004  0.011  0.031
   27  0.007  0.002  0.011  0.019
   28  0.000  0.005  0.008  0.013
   29  0.013  0.003  0.005  0.021
   30  0.000  0.002  0.005  0.007
   31  0.013  0.003  0.005  0.022
   32  0.018  0.003  0.005  0.026
   33  0.000  0.002  0.005  0.007
   34  0.017  0.003  0.005  0.026
   35  0.000  0.004  0.011  0.015
   36  0.000  0.000  0.009  0.009
   37  0.000  0.000  0.000  0.000
   38  0.000  0.000  0.000  0.000
tot    0.227  0.094  0.383  0.704
 
band    21 # energy   -4.69341564 # occ.  2.00000000
 
ion      s      p      d    tot
    1  0.010  0.001  0.001  0.013
    2  0.000  0.003  0.010  0.013
    3  0.000  0.003  0.010  0.013
    4  0.000  0.003  0.010  0.013
    5  0.041  0.003  0.000  0.044
    6  0.000  0.003  0.010  0.013
    7  0.000  0.003  0.010  0.013
    8  0.000  0.003  0.010  0.013
    9  0.004  0.001  0.001  0.006
   10  0.002  0.001  0.023  0.026
   11  0.003  0.003  0.019  0.025
   12  0.002  0.001  0.023  0.026
   13  0.003  0.003  0.019  0.025
   14  0.003  0.003  0.019  0.025
   15  0.004  0.001  0.010  0.016
   16  0.002  0.001  0.023  0.026