 vasp.6.2.0 18Jan21 (build Jun 12 2021 23:27:24) complex                        
  
 executed on             LinuxIFC date 2022.05.26  19:26:16
 running on   28 total cores
 distrk:  each k-point on   28 cores,    1 groups
 distr:  one band on NCORE=   1 cores,   28 groups


--------------------------------------------------------------------------------------------------------


 INCAR:
   ISMEAR = -5
   SIGMA = 0.1
   ISPIN = 1
   EDIFF = 1.d-5
   EDIFFG = -0.01
   NSW = 0
   NELM = 150
   ENCUT = 500
   ISIF = 2
   IBRION = 2
   LREAL = Auto
   ALGO = Fast
   ICHARG = 11
   LORBIT = 10
   LCHARG = .F.
   LWAVE = .F.

 POTCAR:    PAW_PBE Au 04Oct2007                  
 POTCAR:    PAW_PBE Ru 04Feb2005                  
 POTCAR:    PAW_PBE H 15Jun2001                   
 -----------------------------------------------------------------------------
|                                                                             |
|           W    W    AA    RRRRR   N    N  II  N    N   GGGG   !!!           |
|           W    W   A  A   R    R  NN   N  II  NN   N  G    G  !!!           |
|           W    W  A    A  R    R  N N  N  II  N N  N  G       !!!           |
|           W WW W  AAAAAA  RRRRR   N  N N  II  N  N N  G  GGG   !            |
|           WW  WW  A    A  R   R   N   NN  II  N   NN  G    G                |
|           W    W  A    A  R    R  N    N  II  N    N   GGGG   !!!           |
|                                                                             |
|     For optimal performance we recommend to set                             |
|       NCORE = 2 up to number-of-cores-per-socket                            |
|     NCORE specifies how many cores store one orbital (NPAR=cpu/NCORE).      |
|     This setting can greatly improve the performance of VASP for DFT.       |
|     The default, NCORE=1 might be grossly inefficient on modern             |
|     multi-core architectures or massively parallel machines. Do your        |
|     own testing! More info at https://www.vasp.at/wiki/index.php/NCORE      |
|     Unfortunately you need to use the default for GW and RPA                |
|     calculations (for HF NCORE is supported but not extensively tested      |
|     yet).                                                                   |
|                                                                             |
 -----------------------------------------------------------------------------

 POTCAR:    PAW_PBE Au 04Oct2007                  
   VRHFIN =Au: s1d10                                                                                
   LEXCH  = PE                                                                                      
   EATOM  =   926.0867 eV,   68.0654 Ry                                                             
                                                                                                    
   TITEL  = PAW_PBE Au 04Oct2007                                                                    
   LULTRA =        F    use ultrasoft PP ?                                                          
   IUNSCR =        1    unscreen: 0-lin 1-nonlin 2-no                                               
   RPACOR =    2.330    partial core radius                                                         
   POMASS =  196.966; ZVAL   =   11.000    mass and valenz                                          
   RCORE  =    2.500    outmost cutoff radius                                                       
   RWIGS  =    2.840; RWIGS  =    1.503    wigner-seitz radius (au A)                               
   ENMAX  =  229.943; ENMIN  =  172.457 eV                                                          
   ICORE  =        3    local potential                                                             
   LCOR   =        T    correct aug charges                                                         
   LPAW   =        T    paw PP                                                                      
   EAUG   =  356.670                                                                                
   DEXC   =    0.000                                                                                
   RMAX   =    2.562    core radius for proj-oper                                                   
   RAUG   =    1.300    factor for augmentation sphere                                              
   RDEP   =    2.598    radius for radial grids                                                     
   RDEPT  =    2.193    core radius for aug-charge                                                  
                                                                                                    
   Atomic configuration                                                                             
   16 entries                                                                                       
     n  l   j            E        occ.                                                              
     1  0  0.50    -80748.5001   2.0000                                                             
     2  0  0.50    -14244.7466   2.0000                                                             
     2  1  1.50    -12310.9591   6.0000                                                             
     3  0  0.50     -3362.1768   2.0000                                                             
     3  1  1.50     -2801.5463   6.0000                                                             
     3  2  2.50     -2203.8206  10.0000                                                             
     4  0  0.50      -729.8168   2.0000                                                             
     4  1  1.50      -546.0527   6.0000                                                             
     4  2  2.50      -325.7302  10.0000                                                             
     4  3  3.50       -81.1472  14.0000                                                             
     5  0  0.50      -108.3201   2.0000                                                             
     5  1  1.50       -59.7479   6.0000                                                             
     5  2  2.50        -6.8783  10.0000                                                             
     6  0  0.50        -5.7602   1.0000                                                             
     6  1  1.50        -6.8029   0.0000                                                             
     5  3  2.50        -1.3606   0.0000                                                             
   Description                                                                                      
     l       E           TYP  RCUT    TYP  RCUT                                                     
     2     -6.8782861     23  2.500                                                                 
     2     -8.2388687     23  2.500                                                                 
     0     -5.7601759     23  2.500                                                                 
     0     -0.8493231     23  2.500                                                                 
     1     -2.7211652     23  2.500                                                                 
     1     27.2116520     23  2.500                                                                 
     3     -1.3605826     23  2.500                                                                 
  local pseudopotential read in
  partial core-charges read in
  partial kinetic energy density read in
  atomic valenz-charges read in
  non local Contribution for L=           2  read in
    real space projection operators read in
  non local Contribution for L=           2  read in
    real space projection operators read in
  non local Contribution for L=           0  read in
    real space projection operators read in
  non local Contribution for L=           0  read in
    real space projection operators read in
  non local Contribution for L=           1  read in
    real space projection operators read in
  non local Contribution for L=           1  read in
    real space projection operators read in
    PAW grid and wavefunctions read in
 
   number of l-projection  operators is LMAX  =           6
   number of lm-projection operators is LMMAX =          18
 
 POTCAR:    PAW_PBE Ru 04Feb2005                  
   VRHFIN =Ru: s1 d7                                                                                
   LEXCH  = PE                                                                                      
   EATOM  =   454.8837 eV,   33.4330 Ry                                                             
                                                                                                    
   TITEL  = PAW_PBE Ru 04Feb2005                                                                    
   LULTRA =        F    use ultrasoft PP ?                                                          
   IUNSCR =        1    unscreen: 0-lin 1-nonlin 2-no                                               
   RPACOR =    2.170    partial core radius                                                         
   POMASS =  101.070; ZVAL   =    8.000    mass and valenz                                          
   RCORE  =    2.700    outmost cutoff radius                                                       
   RWIGS  =    2.650; RWIGS  =    1.402    wigner-seitz radius (au A)                               
   ENMAX  =  213.271; ENMIN  =  159.953 eV                                                          
   ICORE  =        3    local potential                                                             
   LCOR   =        T    correct aug charges                                                         
   LPAW   =        T    paw PP                                                                      
   EAUG   =  333.494                                                                                
   DEXC   =    0.000                                                                                
   RMAX   =    2.758    core radius for proj-oper                                                   
   RAUG   =    1.300    factor for augmentation sphere                                              
   RDEP   =    2.865    radius for radial grids                                                     
   RDEPT  =    2.250    core radius for aug-charge                                                  
                                                                                                    
   Atomic configuration                                                                             
   12 entries                                                                                       
     n  l   j            E        occ.                                                              
     1  0  0.50    -21933.2693   2.0000                                                             
     2  0  0.50     -3153.4097   2.0000                                                             
     2  1  1.50     -2823.9548   6.0000                                                             
     3  0  0.50      -555.3323   2.0000                                                             
     3  1  1.50      -447.1024   6.0000                                                             
     3  2  2.50      -273.0570  10.0000                                                             
     4  0  0.50       -76.3589   2.0000                                                             
     4  1  1.50       -46.4050   6.0000                                                             
     4  2  2.50        -5.2029   7.0000                                                             
     5  0  0.50        -4.2392   1.0000                                                             
     5  1  0.50        -1.3606   0.0000                                                             
     4  3  2.50        -1.3606   0.0000                                                             
   Description                                                                                      
     l       E           TYP  RCUT    TYP  RCUT                                                     
     2     -5.2028939     23  2.600                                                                 
     2     -6.5634765     23  2.600                                                                 
     0     -4.2392259     23  2.700                                                                 
     0     27.2116520     23  2.700                                                                 
     1     -4.0817478     23  2.700                                                                 
     1     27.2116520     23  2.700                                                                 
     3     -5.4423304     23  2.600                                                                 
  local pseudopotential read in
  partial core-charges read in
  partial kinetic energy density read in
  atomic valenz-charges read in
  non local Contribution for L=           2  read in
    real space projection operators read in
  non local Contribution for L=           2  read in
    real space projection operators read in
  non local Contribution for L=           0  read in
    real space projection operators read in
  non local Contribution for L=           0  read in
    real space projection operators read in
  non local Contribution for L=           1  read in
    real space projection operators read in
  non local Contribution for L=           1  read in
    real space projection operators read in
    PAW grid and wavefunctions read in
 
   number of l-projection  operators is LMAX  =           6
   number of lm-projection operators is LMMAX =          18
 
 POTCAR:    PAW_PBE H 15Jun2001                   
   VRHFIN =H: ultrasoft test                                                                        
   LEXCH  = PE                                                                                      
   EATOM  =    12.4884 eV,    0.9179 Ry                                                             
                                                                                                    
   TITEL  = PAW_PBE H 15Jun2001                                                                     
   LULTRA =        F    use ultrasoft PP ?                                                          
   IUNSCR =        0    unscreen: 0-lin 1-nonlin 2-no                                               
   RPACOR =    0.000    partial core radius                                                         
   POMASS =    1.000; ZVAL   =    1.000    mass and valenz                                          
   RCORE  =    1.100    outmost cutoff radius                                                       
   RWIGS  =    0.700; RWIGS  =    0.370    wigner-seitz radius (au A)                               
   ENMAX  =  250.000; ENMIN  =  200.000 eV                                                          
   RCLOC  =    0.701    cutoff for local pot                                                        
   LCOR   =        T    correct aug charges                                                         
   LPAW   =        T    paw PP                                                                      
   EAUG   =  400.000                                                                                
   RMAX   =    1.123    core radius for proj-oper                                                   
   RAUG   =    1.200    factor for augmentation sphere                                              
   RDEP   =    1.112    radius for radial grids                                                     
   RDEPT  =    0.926    core radius for aug-charge                                                  
                                                                                                    
   Atomic configuration                                                                             
    2 entries                                                                                       
     n  l   j            E        occ.                                                              
     1  0  0.50        -6.4927   1.0000                                                             
     2  1  0.50        -3.4015   0.0000                                                             
   Description                                                                                      
     l       E           TYP  RCUT    TYP  RCUT                                                     
     0     -6.4927494     23  1.100                                                                 
     0      6.8029130     23  1.100                                                                 
     1     -4.0817478     23  1.100                                                                 
  local pseudopotential read in
  atomic valenz-charges read in
  non local Contribution for L=           0  read in
    real space projection operators read in
  non local Contribution for L=           0  read in
    real space projection operators read in
  non local Contribution for L=           1  read in
    real space projection operators read in
    PAW grid and wavefunctions read in
 
   number of l-projection  operators is LMAX  =           3
   number of lm-projection operators is LMMAX =           5
 
 Optimization of the real space projectors (new method)

 maximal supplied QI-value         = 15.12
 optimisation between [QCUT,QGAM] = [ 11.34, 22.83] = [ 36.00,145.93] Ry 
 Optimized for a Real-space Cutoff    1.39 Angstroem

   l    n(q)    QCUT    max X(q) W(low)/X(q) W(high)/X(q)  e(spline) 
   2      9    11.338    60.898    0.39E-03    0.42E-03    0.21E-06
   2      9    11.338    58.894    0.40E-03    0.42E-03    0.22E-06
   0      9    11.338   109.617    0.13E-03    0.20E-04    0.13E-06
   0      9    11.338    75.026    0.13E-03    0.20E-04    0.13E-06
   1      9    11.338    16.344    0.33E-04    0.24E-03    0.18E-06
   1      9    11.338    10.160    0.26E-04    0.19E-03    0.15E-06
 Optimization of the real space projectors (new method)

 maximal supplied QI-value         = 13.98
 optimisation between [QCUT,QGAM] = [ 11.33, 22.79] = [ 35.93,145.49] Ry 
 Optimized for a Real-space Cutoff    1.52 Angstroem

   l    n(q)    QCUT    max X(q) W(low)/X(q) W(high)/X(q)  e(spline) 
   2      9    11.327    61.733    0.26E-03    0.14E-03    0.16E-06
   2      9    11.327    59.886    0.26E-03    0.14E-03    0.17E-06
   0     10    11.327    23.358    0.19E-03    0.14E-04    0.46E-06
   0     10    11.327    11.320    0.15E-03    0.11E-04    0.37E-06
   1     10    11.327    14.765    0.49E-04    0.26E-03    0.24E-06
   1     10    11.327     8.283    0.37E-04    0.20E-03    0.18E-06
 Optimization of the real space projectors (new method)

 maximal supplied QI-value         = 34.20
 optimisation between [QCUT,QGAM] = [ 11.29, 22.57] = [ 35.68,142.71] Ry 
 Optimized for a Real-space Cutoff    1.16 Angstroem

   l    n(q)    QCUT    max X(q) W(low)/X(q) W(high)/X(q)  e(spline) 
   0      8    11.287    19.460    0.40E-03    0.73E-03    0.16E-06
   0      8    11.287    12.209    0.38E-03    0.70E-03    0.15E-06
   1      7    11.287     4.655    0.22E-03    0.25E-04    0.22E-06
  PAW_PBE Au 04Oct2007                  :
 energy of atom  1       EATOM= -926.0867
 kinetic energy error for atom=    0.0042 (will be added to EATOM!!)
  PAW_PBE Ru 04Feb2005                  :
 energy of atom  2       EATOM= -454.8837
 kinetic energy error for atom=    0.0015 (will be added to EATOM!!)
  PAW_PBE H 15Jun2001                   :
 energy of atom  3       EATOM=  -12.4884
 kinetic energy error for atom=    0.0020 (will be added to EATOM!!)
 
 
 POSCAR: Au-Ru-H
  positions in direct lattice
  velocities in cartesian coordinates
 exchange correlation table for  LEXCH =        8
   RHO(1)=    0.500       N(1)  =     2000
   RHO(2)=  100.500       N(2)  =     4000

 VTST: version 3.2, (02/03/18)

 CHAIN: initializing optimizer
 
 OPT: Using VASP Conjugate-Gradient optimizer
 CHAIN: Read ICHAIN            0
 
 POSCAR: Au-Ru-H
  positions in direct lattice
  velocities in cartesian coordinates
 


--------------------------------------------------------------------------------------------------------


 ion  position               nearest neighbor table
   1  0.000  0.000  0.238-  16 2.94  12 2.94   6 2.94   8 2.94   7 2.94   3 2.94  10 2.94   4 2.94
                             2 2.94
   2  0.333  0.000  0.238-   9 2.94  11 2.94  17 2.94  10 2.94   8 2.94   4 2.94   5 2.94   1 2.94
                             3 2.94
   3  0.667  0.000  0.238-   7 2.94  18 2.94  12 2.94   1 2.94  11 2.94   5 2.94   6 2.94   9 2.94
                             2 2.94
   4  0.000  0.333  0.238-  10 2.94   6 2.94   5 2.94  13 2.94   2 2.94  15 2.94   9 2.94   1 2.94
                             7 2.94
   5  0.333  0.333  0.238-  13 2.94   7 2.94  11 2.94   4 2.94   2 2.94  14 2.94   3 2.94   8 2.94
                             6 2.94
   6  0.667  0.333  0.238-  15 2.94  14 2.94   1 2.94  12 2.94   4 2.94   9 2.94   8 2.94   3 2.94
                             5 2.94
   7  0.000  0.667  0.238-  18 2.94   3 2.94  16 2.94   5 2.94   1 2.94  13 2.94   8 2.94   4 2.94
                             9 2.94
   8  0.333  0.667  0.238-   9 2.94  17 2.94   1 2.94   2 2.94  14 2.94  16 2.94   6 2.94   7 2.94
                             5 2.94
   9  0.667  0.667  0.238-   2 2.94   8 2.94  17 2.94   6 2.94  15 2.94   4 2.94   3 2.94  18 2.94
                             7 2.94
  10  0.111  0.111  0.346-  20 2.91  26 2.94  19 2.94  11 2.94  17 2.94   2 2.94   4 2.94   1 2.94
                            12 2.94  16 2.94  13 2.94  15 2.94
  11  0.444  0.111  0.346-  20 2.91  21 2.91  27 2.94  13 2.94   2 2.94  10 2.94  17 2.94   5 2.94
                             3 2.94  18 2.94  14 2.94  12 2.94
  12  0.778  0.111  0.346-  21 2.91  25 2.94  19 2.94  16 2.94  18 2.94   1 2.94  14 2.94  15 2.94
                             3 2.94   6 2.94  10 2.94  11 2.94
  13  0.111  0.444  0.346-  23 2.91  20 2.91  22 2.94   5 2.94  18 2.94  11 2.94   7 2.94   4 2.94
                            16 2.94  10 2.94  14 2.94  15 2.94
  14  0.444  0.444  0.346-  21 2.91  23 2.91  24 2.94  15 2.94   6 2.94  12 2.94   8 2.94  17 2.94
                             5 2.94  16 2.94  13 2.94  11 2.94
  15  0.778  0.444  0.346-  24 2.92  22 2.92  19 2.94  14 2.94   6 2.94  17 2.94  12 2.94   9 2.94
                             4 2.94  10 2.94  13 2.94  18 2.94
  16  0.111  0.778  0.346-  23 2.91  25 2.94  26 2.94  18 2.94  12 2.94   7 2.94   1 2.94   8 2.94
                            13 2.94  10 2.94  14 2.94  17 2.94
  17  0.444  0.778  0.346-  27 2.92  24 2.92  26 2.94   9 2.94  15 2.94   2 2.94  10 2.94  11 2.94
                             8 2.94  14 2.94  16 2.94  18 2.94
  18  0.778  0.778  0.346-  22 2.92  27 2.92  25 2.94  16 2.94   7 2.94  13 2.94  12 2.94   3 2.94
                            11 2.94   9 2.94  15 2.94  17 2.94
  19  0.889  0.222  0.454-  15 2.94  10 2.94  12 2.94  24 2.94  22 2.94  26 2.94  25 2.94  21 2.94
                            20 2.94  28 2.95  32 2.97  31 2.97
  20  0.223  0.223  0.452-  36 2.78  11 2.91  13 2.91  10 2.91  23 2.93  21 2.93  29 2.94  31 2.94
                            26 2.94  19 2.94  27 2.95  22 2.95
  21  0.555  0.223  0.452-  36 2.78  14 2.91  11 2.91  12 2.91  20 2.93  23 2.93  30 2.94  32 2.94
                            25 2.94  19 2.94  27 2.95  24 2.95
  22  0.887  0.557  0.453-  24 2.91  27 2.91  18 2.92  15 2.92  13 2.94  25 2.94  19 2.94  23 2.95
                            20 2.95  35 2.96  33 2.96  31 2.96
  23  0.223  0.555  0.452-  36 2.78  13 2.91  14 2.91  16 2.91  20 2.93  21 2.93  33 2.94  34 2.94
                            25 2.94  26 2.94  22 2.95  24 2.95
  24  0.557  0.557  0.453-  27 2.91  22 2.91  15 2.92  17 2.92  14 2.94  26 2.94  19 2.94  21 2.95
                            23 2.95  35 2.96  32 2.96  34 2.96
  25  0.889  0.889  0.454-  18 2.94  16 2.94  12 2.94  22 2.94  27 2.94  19 2.94  26 2.94  23 2.94
                            21 2.94  28 2.95  33 2.97  30 2.97
  26  0.222  0.889  0.454-  17 2.94  10 2.94  16 2.94  27 2.94  24 2.94  19 2.94  25 2.94  20 2.94
                            23 2.94  28 2.95  29 2.97  34 2.97
  27  0.557  0.887  0.453-  24 2.91  22 2.91  17 2.92  18 2.92  11 2.94  26 2.94  25 2.94  20 2.95
                            21 2.95  35 2.96  29 2.96  30 2.96
  28  0.000  0.000  0.563-  25 2.95  19 2.95  26 2.95  34 2.97  32 2.97  33 2.97  30 2.97  31 2.97
                            29 2.97
  29  0.333  0.007  0.562-  31 2.88  30 2.88  36 2.89  20 2.94  27 2.96  28 2.97  35 2.97  26 2.97
                            34 3.05
  30  0.660  0.007  0.562-  32 2.88  29 2.88  36 2.89  21 2.94  27 2.96  28 2.97  35 2.97  25 2.97
                            33 3.05
  31  0.007  0.333  0.562-  29 2.88  33 2.88  36 2.89  20 2.94  22 2.96  28 2.97  35 2.97  19 2.97
                            32 3.05
  32  0.660  0.333  0.562-  30 2.88  34 2.88  36 2.89  21 2.94  24 2.96  28 2.97  35 2.97  19 2.97
                            31 3.05
  33  0.007  0.660  0.562-  34 2.88  31 2.88  36 2.89  23 2.94  22 2.96  28 2.97  35 2.97  25 2.97
                            30 3.05
  34  0.333  0.660  0.562-  33 2.88  32 2.88  36 2.89  23 2.94  24 2.96  28 2.97  35 2.97  26 2.97
                            29 3.05
  35  0.667  0.667  0.563-  24 2.96  27 2.96  22 2.96  29 2.97  34 2.97  32 2.97  31 2.97  30 2.97
                            33 2.97
  36  0.333  0.333  0.552-  37 1.59  20 2.78  23 2.78  21 2.78  33 2.89  31 2.89  29 2.89  30 2.89
                            34 2.89  32 2.89
  37  0.333  0.333  0.623-  36 1.59
 
  LATTYP: Found a hexagonal cell.
 ALAT       =     8.8135128021
 C/A-ratio  =     2.5184286595
  
  Lattice vectors:
  
 A1 = (  -4.4067569092,  -7.6327256898,   0.0000000000)
 A2 = (   8.8135128021,   0.0000000000,   0.0000000000)
 A3 = (   0.0000000000,   0.0000000000,  22.1962032318)


Analysis of symmetry for initial positions (statically):
=====================================================================
 Subroutine PRICEL returns:
 Original cell was already a primitive cell.
 

 Routine SETGRP: Setting up the symmetry group for a 
 hexagonal supercell.


 Subroutine GETGRP returns: Found  6 space group operations
 (whereof  6 operations were pure point group operations)
 out of a pool of 24 trial point group operations.


The static configuration has the point symmetry C_3v.


Analysis of symmetry for dynamics (positions and initial velocities):
=====================================================================
 Subroutine PRICEL returns:
 Original cell was already a primitive cell.
 

 Routine SETGRP: Setting up the symmetry group for a 
 hexagonal supercell.


 Subroutine GETGRP returns: Found  6 space group operations
 (whereof  6 operations were pure point group operations)
 out of a pool of 24 trial point group operations.


The dynamic configuration has the point symmetry C_3v.


Analysis of constrained symmetry for selective dynamics:
=====================================================================
 Subroutine PRICEL returns:
 Original cell was already a primitive cell.
 

 Routine SETGRP: Setting up the symmetry group for a 
 hexagonal supercell.


 Subroutine GETGRP returns: Found  6 space group operations
 (whereof  6 operations were pure point group operations)
 out of a pool of 24 trial point group operations.


The constrained configuration has the point symmetry C_3v.


 Subroutine INISYM returns: Found  6 space group operations
 (whereof  6 operations are pure point group operations),
 and found     1 'primitive' translations


----------------------------------------------------------------------------------------

                                     Primitive cell                                     

  volume of cell :    1493.1636

  direct lattice vectors                    reciprocal lattice vectors
     8.813512802  0.000000000  0.000000000     0.113462137 -0.065507406  0.000000000
     4.406756909  7.632725690  0.000000000     0.000000000  0.131014796  0.000000000
     0.000000000  0.000000000 22.196203232     0.000000000  0.000000000  0.045052750

  length of vectors
     8.813512802  8.813512802 22.196203232     0.131014796  0.131014796  0.045052750

  position of ions in fractional coordinates (direct lattice)
     0.000000000  0.000000000  0.237895638
     0.333333343  0.000000000  0.237895638
     0.666666687  0.000000000  0.237895638
     1.000000000  0.333333343  0.237895638
     0.333333313  0.333333343  0.237895638
     0.666666687  0.333333343  0.237895638
     1.000000000  0.666666687  0.237895638
     0.333333343  0.666666687  0.237895638
     0.666666627  0.666666687  0.237895638
     0.111111119  0.111111112  0.345965207
     0.444444418  0.111111112  0.345965207
     0.777777791  0.111111112  0.345965207
     0.111111127  0.444444448  0.345965207
     0.444444478  0.444444448  0.345965207
     0.777777731  0.444444448  0.345965207
     0.111111090  0.777777791  0.345965207
     0.444444448  0.777777791  0.345965207
     0.777777851  0.777777791  0.345965207
     0.888846350  0.222307315  0.453936556
     0.222561074  0.222561059  0.452383712
     0.554877911  0.222561059  0.452383712
     0.886631682  0.556684189  0.453363714
     0.222561029  0.554877911  0.452383712
     0.556684189  0.556684189  0.453363714
     0.888846350  0.888846350  0.453936556
     0.222307345  0.888846350  0.453936556
     0.556684129  0.886631682  0.453363714
     0.000000000  0.000000000  0.562915825
     0.333249581  0.006611377  0.562185077
     0.660139073  0.006611377  0.562185077
     0.006611377  0.333249581  0.562185077
     0.660139073  0.333249581  0.562185077
     0.006611377  0.660139073  0.562185077
     0.333249581  0.660139073  0.562185077
     0.666666627  0.666666687  0.562958745
     0.333333313  0.333333343  0.551535054
     0.333333313  0.333333343  0.623366282

  ion indices of the primitive-cell ions
   primitive index   ion index
                 1           1
                 2           2
                 3           3
                 4           4
                 5           5
                 6           6
                 7           7
                 8           8
                 9           9
                10          10
                11          11
                12          12
                13          13
                14          14
                15          15
                16          16
                17          17
                18          18
                19          19
                20          20
                21          21
                22          22
                23          23
                24          24
                25          25
                26          26
                27          27
                28          28
                29          29
                30          30
                31          31
                32          32
                33          33
                34          34
                35          35
                36          36
                37          37

----------------------------------------------------------------------------------------

 
 
 KPOINTS: Automatic mesh                          

Automatic generation of k-mesh.
 Grid dimensions read from file:
 generate k-points for:    8    8    1

 Generating k-lattice:

  Cartesian coordinates                     Fractional coordinates (reciprocal lattice)
     0.014182767 -0.008188426  0.000000000     0.125000000 -0.000000000  0.000000000
     0.000000000  0.016376850  0.000000000     0.000000000  0.125000000  0.000000000
     0.000000000  0.000000000  0.045052750     0.000000000  0.000000000  1.000000000

  Length of vectors
     0.016376850  0.016376850  0.045052750

  Shift w.r.t. Gamma in fractional coordinates (k-lattice)
     0.000000000  0.000000000  0.000000000

 TETIRR: Found     36 inequivalent tetrahedra from      384
 
 Subroutine IBZKPT returns following result:
 ===========================================
 
 Found     10 irreducible k-points:
 
 Following reciprocal coordinates:
            Coordinates               Weight
  0.000000  0.000000  0.000000      1.000000
  0.125000 -0.000000  0.000000      6.000000
  0.250000 -0.000000  0.000000      6.000000
  0.375000  0.000000  0.000000      6.000000
  0.500000 -0.000000  0.000000      3.000000
  0.250000  0.125000  0.000000      6.000000
  0.375000  0.125000  0.000000     12.000000
  0.500000  0.125000  0.000000     12.000000
  0.500000  0.250000  0.000000      6.000000
 -0.375000  0.250000  0.000000      6.000000
 
 Following cartesian coordinates:
            Coordinates               Weight
  0.000000  0.000000  0.000000      1.000000
  0.014183 -0.008188  0.000000      6.000000
  0.028366 -0.016377  0.000000      6.000000
  0.042548 -0.024565  0.000000      6.000000
  0.056731 -0.032754  0.000000      3.000000
  0.028366 -0.000000  0.000000      6.000000
  0.042548 -0.008188  0.000000     12.000000
  0.056731 -0.016377  0.000000     12.000000
  0.056731 -0.000000  0.000000      6.000000
 -0.042548  0.057319  0.000000      6.000000
 


--------------------------------------------------------------------------------------------------------




 Dimension of arrays:
   k-points           NKPTS =     10   k-points in BZ     NKDIM =     10   number of bands    NBANDS=    252
   number of dos      NEDOS =    301   number of ions     NIONS =     37
   non local maximal  LDIM  =      6   non local SUM 2l+1 LMDIM =     18
   total plane-waves  NPLWV = 290304
   max r-space proj   IRMAX =   2902   max aug-charges    IRDMAX=  13348
   dimension x,y,z NGX =    48 NGY =   48 NGZ =  126
   dimension x,y,z NGXF=    96 NGYF=   96 NGZF=  252
   support grid    NGXF=    96 NGYF=   96 NGZF=  252
   ions per type =              35   1   1
   NGX,Y,Z   is equivalent  to a cutoff of   9.05,  9.05,  9.44 a.u.
   NGXF,Y,Z  is equivalent  to a cutoff of  18.11, 18.11, 18.87 a.u.

 SYSTEM =  unknown system                          
 POSCAR =  Au-Ru-H                                 

 Startparameter for this run:
   NWRITE =      2    write-flag & timer
   PREC   = normal    normal or accurate (medium, high low for compatibility)
   ISTART =      0    job   : 0-new  1-cont  2-samecut
   ICHARG =     11    charge: 1-file 2-atom 10-const
   ISPIN  =      1    spin polarized calculation?
   LNONCOLLINEAR =      F non collinear calculations
   LSORBIT =      F    spin-orbit coupling
   INIWAV =      1    electr: 0-lowe 1-rand  2-diag
   LASPH  =      F    aspherical Exc in radial PAW
   METAGGA=      F    non-selfconsistent MetaGGA calc.

 Electronic Relaxation 1
   ENCUT  =  500.0 eV  36.75 Ry    6.06 a.u.  16.07 16.07 40.47*2*pi/ulx,y,z
   ENINI  =  500.0     initial cutoff
   ENAUG  =  400.0 eV  augmentation charge cutoff
   NELM   =    150;   NELMIN=  2; NELMDL= -5     # of ELM steps 
   EDIFF  = 0.1E-04   stopping-criterion for ELM
   LREAL  =      T    real-space projection
   NLSPLINE    = F    spline interpolate recip. space projectors
   LCOMPAT=      F    compatible to vasp.4.4
   GGA_COMPAT  = T    GGA compatible to vasp.4.4-vasp.4.6
   LMAXPAW     = -100 max onsite density
   LMAXMIX     =    2 max onsite mixed and CHGCAR
   VOSKOWN=      0    Vosko Wilk Nusair interpolation
   ROPT   =   -0.00050  -0.00050  -0.00050
 Ionic relaxation
   EDIFFG = -.1E-01   stopping-criterion for IOM
   NSW    =      0    number of steps for IOM
   NBLOCK =      1;   KBLOCK =      1    inner block; outer block 
   IBRION =     -1    ionic relax: 0-MD 1-quasi-New 2-CG
   NFREE  =      1    steps in history (QN), initial steepest desc. (CG)
   ISIF   =      2    stress and relaxation
   IWAVPR =     10    prediction:  0-non 1-charg 2-wave 3-comb
   ISYM   =      2    0-nonsym 1-usesym 2-fastsym
   LCORR  =      T    Harris-Foulkes like correction to forces

   POTIM  = 0.5000    time-step for ionic-motion
   TEIN   =    0.0    initial temperature
   TEBEG  =    0.0;   TEEND  =   0.0 temperature during run
   SMASS  =  -3.00    Nose mass-parameter (am)
   estimated Nose-frequenzy (Omega)   =  0.10E-29 period in steps = 0.13E+47 mass=  -0.178E-26a.u.
   SCALEE = 1.0000    scale energy and forces
   NPACO  =    256;   APACO  = 16.0  distance and # of slots for P.C.
   PSTRESS=    0.0 pullay stress

  Mass of Ions in am
   POMASS = 196.97101.07  1.00
  Ionic Valenz
   ZVAL   =  11.00  8.00  1.00
  Atomic Wigner-Seitz radii
   RWIGS  =  -1.00 -1.00 -1.00
  virtual crystal weights 
   VCA    =   1.00  1.00  1.00
   NELECT =     394.0000    total number of electrons
   NUPDOWN=      -1.0000    fix difference up-down

 DOS related values:
   EMIN   =  10.00;   EMAX   =-10.00  energy-range for DOS
   EFERMI =   0.00
   ISMEAR =    -5;   SIGMA  =   0.10  broadening in eV -4-tet -1-fermi 0-gaus

 Electronic relaxation 2 (details)
   IALGO  =     68    algorithm
   LDIAG  =      T    sub-space diagonalisation (order eigenvalues)
   LSUBROT=      F    optimize rotation matrix (better conditioning)
   TURBO    =      0    0=normal 1=particle mesh
   IRESTART =      0    0=no restart 2=restart with 2 vectors
   NREBOOT  =      0    no. of reboots
   NMIN     =      0    reboot dimension
   EREF     =   0.00    reference energy to select bands
   IMIX   =      4    mixing-type and parameters
     AMIX     =   0.40;   BMIX     =  1.00
     AMIX_MAG =   1.60;   BMIX_MAG =  1.00
     AMIN     =   0.10
     WC   =   100.;   INIMIX=   1;  MIXPRE=   1;  MAXMIX= -45

 Intra band minimization:
   WEIMIN = 0.0000     energy-eigenvalue tresh-hold
   EBREAK =  0.99E-08  absolut break condition
   DEPER  =   0.30     relativ break condition  

   TIME   =   0.40     timestep for ELM

  volume/ion in A,a.u.               =      40.36       272.33
  Fermi-wavevector in a.u.,A,eV,Ry     =   1.050037  1.984281 15.001469  1.102577
  Thomas-Fermi vector in A             =   2.185024
 
 Write flags
   LWAVE        =      F    write WAVECAR
   LDOWNSAMPLE  =      F    k-point downsampling of WAVECAR
   LCHARG       =      F    write CHGCAR
   LVTOT        =      F    write LOCPOT, total local potential
   LVHAR        =      F    write LOCPOT, Hartree potential only
   LELF         =      F    write electronic localiz. function (ELF)
   LORBIT       =     10    0 simple, 1 ext, 2 COOP (PROOUT), +10 PAW based schemes


 Dipole corrections
   LMONO  =      F    monopole corrections only (constant potential shift)
   LDIPOL =      F    correct potential (dipole corrections)
   IDIPOL =      0    1-x, 2-y, 3-z, 4-all directions 
   EPSILON=  1.0000000 bulk dielectric constant

 Exchange correlation treatment:
   GGA     =    --    GGA type
   LEXCH   =     8    internal setting for exchange type
   VOSKOWN=      0    Vosko Wilk Nusair interpolation
   LHFCALC =     F    Hartree Fock is set to
   LHFONE  =     F    Hartree Fock one center treatment
   AEXX    =    0.0000 exact exchange contribution

 Linear response parameters
   LEPSILON=     F    determine dielectric tensor
   LRPA    =     F    only Hartree local field effects (RPA)
   LNABLA  =     F    use nabla operator in PAW spheres
   LVEL    =     F    velocity operator in full k-point grid
   LINTERFAST=   F  fast interpolation
   KINTER  =     0    interpolate to denser k-point grid
   CSHIFT  =0.1000    complex shift for real part using Kramers Kronig
   OMEGAMAX=  -1.0    maximum frequency
   DEG_THRESHOLD= 0.2000000E-02 threshold for treating states as degnerate
   RTIME   =   -0.100 relaxation time in fs
  (WPLASMAI=    0.000 imaginary part of plasma frequency in eV, 0.658/RTIME)
   DFIELD  = 0.0000000 0.0000000 0.0000000 field for delta impulse in time
 
 Orbital magnetization related:
   ORBITALMAG=     F  switch on orbital magnetization
   LCHIMAG   =     F  perturbation theory with respect to B field
   DQ        =  0.001000  dq finite difference perturbation B field
   LLRAUG    =     F  two centre corrections for induced B field



--------------------------------------------------------------------------------------------------------


 Static calculation
 charge density and potential remain constant during run
 non-spin polarized calculation
 RMM-DIIS sequential band-by-band and
  variant of blocked Davidson during initial phase
 perform sub-space diagonalisation
    before iterative eigenvector-optimisation
 no mixing
 using additional bands           55
 real space projection scheme for non local part
 use partial core corrections
 calculate Harris-corrections to forces 
   (improved forces if not selfconsistent)
 use gradient corrections 
 WARNING: stress and forces are not correct
  (second derivative of E(xc) not defined)
 use of overlap-Matrix (Vanderbilt PP)
 Fermi weights with tetrahedron method with Bloechl corrections


--------------------------------------------------------------------------------------------------------


  energy-cutoff  :      500.00
  volume of cell :     1493.16
      direct lattice vectors                 reciprocal lattice vectors
     8.813512802  0.000000000  0.000000000     0.113462137 -0.065507406  0.000000000
     4.406756909  7.632725690  0.000000000     0.000000000  0.131014796  0.000000000
     0.000000000  0.000000000 22.196203232     0.000000000  0.000000000  0.045052750

  length of vectors
     8.813512802  8.813512802 22.196203232     0.131014796  0.131014796  0.045052750


 
 k-points in units of 2pi/SCALE and weight: Automatic mesh                          
   0.00000000  0.00000000  0.00000000       0.016
   0.01418277 -0.00818843  0.00000000       0.094
   0.02836553 -0.01637685  0.00000000       0.094
   0.04254830 -0.02456528  0.00000000       0.094
   0.05673107 -0.03275370  0.00000000       0.047
   0.02836553 -0.00000000  0.00000000       0.094
   0.04254830 -0.00818843  0.00000000       0.188
   0.05673107 -0.01637685  0.00000000       0.188
   0.05673107 -0.00000000  0.00000000       0.094
  -0.04254830  0.05731898  0.00000000       0.094
 
 k-points in reciprocal lattice and weights: Automatic mesh                          
   0.00000000  0.00000000  0.00000000       0.016
   0.12500000 -0.00000000  0.00000000       0.094
   0.25000000 -0.00000000  0.00000000       0.094
   0.37500000  0.00000000  0.00000000       0.094
   0.50000000 -0.00000000  0.00000000       0.047
   0.25000000  0.12500000  0.00000000       0.094
   0.37500000  0.12500000  0.00000000       0.188
   0.50000000  0.12500000  0.00000000       0.188
   0.50000000  0.25000000  0.00000000       0.094
  -0.37500000  0.25000000  0.00000000       0.094
 
 position of ions in fractional coordinates (direct lattice) 
   0.00000000  0.00000000  0.23789564
   0.33333334  0.00000000  0.23789564
   0.66666669  0.00000000  0.23789564
   0.00000000  0.33333334  0.23789564
   0.33333331  0.33333334  0.23789564
   0.66666669  0.33333334  0.23789564
   0.00000000  0.66666669  0.23789564
   0.33333334  0.66666669  0.23789564
   0.66666663  0.66666669  0.23789564
   0.11111112  0.11111111  0.34596521
   0.44444442  0.11111111  0.34596521
   0.77777779  0.11111111  0.34596521
   0.11111113  0.44444445  0.34596521
   0.44444448  0.44444445  0.34596521
   0.77777773  0.44444445  0.34596521
   0.11111109  0.77777779  0.34596521
   0.44444445  0.77777779  0.34596521
   0.77777785  0.77777779  0.34596521
   0.88884635  0.22230732  0.45393656
   0.22256107  0.22256106  0.45238371
   0.55487791  0.22256106  0.45238371
   0.88663168  0.55668419  0.45336371
   0.22256103  0.55487791  0.45238371
   0.55668419  0.55668419  0.45336371
   0.88884635  0.88884635  0.45393656
   0.22230735  0.88884635  0.45393656
   0.55668413  0.88663168  0.45336371
   0.00000000  0.00000000  0.56291582
   0.33324958  0.00661138  0.56218508
   0.66013907  0.00661138  0.56218508
   0.00661138  0.33324958  0.56218508
   0.66013907  0.33324958  0.56218508
   0.00661138  0.66013907  0.56218508
   0.33324958  0.66013907  0.56218508
   0.66666663  0.66666669  0.56295875
   0.33333331  0.33333334  0.55153505
   0.33333331  0.33333334  0.62336628
 
 position of ions in cartesian coordinates  (Angst):
   0.00000000  0.00000000  5.28037993
   2.93783769  0.00000000  5.28037993
   5.87567538  0.00000000  5.28037993
   1.46891901  2.54424197  5.28037993
   4.40675643  2.54424197  5.28037993
   7.34459439  2.54424197  5.28037993
   2.93783803  5.08848395  5.28037993
   5.87567571  5.08848395  5.28037993
   8.81351288  5.08848395  5.28037993
   1.46891893  0.84808064  7.67911405
   4.40675623  0.84808064  7.67911405
   7.34459418  0.84808064  7.67911405
   2.93783798  3.39232256  7.67911405
   5.87567574  3.39232256  7.67911405
   8.81351263  3.39232256  7.67911405
   4.40675667  5.93656453  7.67911405
   7.34459449  5.93656453  7.67911405
  10.28243270  5.93656453  7.67911405
   8.81351299  1.69681076 10.07566805
   2.94231737  1.69874752 10.04120080
   5.87119606  1.69874752 10.04120080
  10.26751158  4.24901771 10.06295314
   4.40675655  4.23523089 10.04120080
   7.35951512  4.24901771 10.06295314
  11.75078848  6.78432037 10.07566805
   5.87623843  6.78432037 10.07566805
   8.81351299  6.76741642 10.06295314
   0.00000000  0.00000000 12.49459404
   2.96623417  0.05046282 12.47837422
   5.84727890  0.05046282 12.47837422
   1.52681934  2.54360264 12.47837422
   7.28669406  2.54360264 12.47837422
   2.96734187  5.03866046 12.47837422
   5.84617187  5.03866046 12.47837422
   8.81351288  5.08848395 12.49554672
   4.40675643  2.54424197 12.24198414
   4.40675643  2.54424197 13.83636468
 


--------------------------------------------------------------------------------------------------------


 k-point   1 :   0.0000 0.0000 0.0000  plane waves:   37827
 k-point   2 :   0.1250-0.0000 0.0000  plane waves:   37876
 k-point   3 :   0.2500-0.0000 0.0000  plane waves:   37924
 k-point   4 :   0.3750 0.0000 0.0000  plane waves:   37904
 k-point   5 :   0.5000-0.0000 0.0000  plane waves:   37912
 k-point   6 :   0.2500 0.1250 0.0000  plane waves:   37858
 k-point   7 :   0.3750 0.1250 0.0000  plane waves:   37928
 k-point   8 :   0.5000 0.1250 0.0000  plane waves:   37924
 k-point   9 :   0.5000 0.2500 0.0000  plane waves:   37926
 k-point  10 :  -0.3750 0.2500 0.0000  plane waves:   37916

 maximum and minimum number of plane-waves per node :     37928    37827

 maximum number of plane-waves:     37928
 maximum index in each direction: 
   IXMAX=   16   IYMAX=   16   IZMAX=   40
   IXMIN=  -16   IYMIN=  -16   IZMIN=  -40


 serial   3D FFT for wavefunctions
 parallel 3D FFT for charge:
    minimum data exchange during FFTs selected (reduces bandwidth)


 total amount of memory used by VASP MPI-rank0   122394. kBytes
=======================================================================

   base      :      30000. kBytes
   nonlr-proj:      14009. kBytes
   fftplans  :       4330. kBytes
   grid      :      17879. kBytes
   one-center:        575. kBytes
   wavefun   :      55601. kBytes
 
     INWAV:  cpu time    0.0000: real time    0.0000
 initial charge density was supplied:
 number of electron     393.9999955 magnetization 
 keeping initial charge density in first step


--------------------------------------------------------------------------------------------------------


 Maximum index for non-local projection operator         2778
 Maximum index for augmentation-charges          858 (set IRDMAX)


--------------------------------------------------------------------------------------------------------


 First call to EWALD:  gamma=   0.155
 Maximum number of real-space cells 4x 4x 2
 Maximum number of reciprocal cells 2x 2x 5

    FEWALD:  cpu time    0.0013: real time    0.0014


--------------------------------------- Iteration      1(   1)  ---------------------------------------


    POTLOK:  cpu time    0.0442: real time    0.0449
    SETDIJ:  cpu time    0.0050: real time    0.0052
     EDDAV:  cpu time    7.1536: real time    7.1569
 BZINTS: Fermi energy:   11.144081;  394.000000 electrons
         Band energy: 0.151032E+04;  BLOECHL correction:   -0.008895
       DOS:  cpu time    0.0105: real time    0.0105
    --------------------------------------------
      LOOP:  cpu time    7.2134: real time    7.2175

 eigenvalue-minimisations  :  5040
 total energy-change (2. order) : 0.2580690E+04  (-0.1784252E+05)
 number of electron     393.9999955 magnetization 
 augmentation part      393.9999955 magnetization 

 Free energy of the ion-electron system (eV)
  ---------------------------------------------------
  alpha Z        PSCENC =       993.72056308
  Ewald energy   TEWEN  =     96714.54992023
  -Hartree energ DENC   =   -130781.78825585
  -exchange      EXHF   =         0.00000000
  -V(xc)+E(xc)   XCENC  =       487.52764459
  PAW double counting   =     35757.51780316   -34981.40842609
  entropy T*S    EENTRO =         0.00000000
  eigenvalues    EBANDS =      1510.31641696
  atomic energy  EATOM  =     32880.25478920
  Solvation  Ediel_sol  =         0.00000000
  ---------------------------------------------------
  free energy    TOTEN  =      2580.69045529 eV

  energy without entropy =     2580.69045529  energy(sigma->0) =     2580.69045529


--------------------------------------------------------------------------------------------------------




--------------------------------------- Iteration      1(   2)  ---------------------------------------


     EDDAV:  cpu time    7.7505: real time    7.7555
 BZINTS: Fermi energy:    1.215538;  394.000000 electrons
         Band energy:-0.106746E+04;  BLOECHL correction:   -0.076583
       DOS:  cpu time    0.0098: real time    0.0098
    --------------------------------------------
      LOOP:  cpu time    7.7603: real time    7.7652

 eigenvalue-minimisations  :  5600
 total energy-change (2. order) :-0.2577774E+04  (-0.2370136E+04)
 number of electron     393.9999955 magnetization 
 augmentation part      393.9999955 magnetization 

 Free energy of the ion-electron system (eV)
  ---------------------------------------------------
  alpha Z        PSCENC =       993.72056308
  Ewald energy   TEWEN  =     96714.54992023
  -Hartree energ DENC   =   -130781.78825585
  -exchange      EXHF   =         0.00000000
  -V(xc)+E(xc)   XCENC  =       487.52764459
  PAW double counting   =     35757.51780316   -34981.40842609
  entropy T*S    EENTRO =         0.00000000
  eigenvalues    EBANDS =     -1067.45786536
  atomic energy  EATOM  =     32880.25478920
  Solvation  Ediel_sol  =         0.00000000
  ---------------------------------------------------
  free energy    TOTEN  =         2.91617297 eV

  energy without entropy =        2.91617297  energy(sigma->0) =        2.91617297


--------------------------------------------------------------------------------------------------------




--------------------------------------- Iteration      1(   3)  ---------------------------------------


     EDDAV:  cpu time    8.0831: real time    8.0857
 BZINTS: Fermi energy:    0.663890;  394.000000 electrons
         Band energy:-0.118574E+04;  BLOECHL correction:   -0.078920
       DOS:  cpu time    0.0099: real time    0.0099
    --------------------------------------------
      LOOP:  cpu time    8.0930: real time    8.0956

 eigenvalue-minimisations  :  5880
 total energy-change (2. order) :-0.1182863E+03  (-0.1144964E+03)
 number of electron     393.9999955 magnetization 
 augmentation part      393.9999955 magnetization 

 Free energy of the ion-electron system (eV)
  ---------------------------------------------------
  alpha Z        PSCENC =       993.72056308
  Ewald energy   TEWEN  =     96714.54992023
  -Hartree energ DENC   =   -130781.78825585
  -exchange      EXHF   =         0.00000000
  -V(xc)+E(xc)   XCENC  =       487.52764459
  PAW double counting   =     35757.51780316   -34981.40842609
  entropy T*S    EENTRO =         0.00000000
  eigenvalues    EBANDS =     -1185.74418613
  atomic energy  EATOM  =     32880.25478920
  Solvation  Ediel_sol  =         0.00000000
  ---------------------------------------------------
  free energy    TOTEN  =      -115.37014780 eV

  energy without entropy =     -115.37014780  energy(sigma->0) =     -115.37014780


--------------------------------------------------------------------------------------------------------




--------------------------------------- Iteration      1(   4)  ---------------------------------------


     EDDAV:  cpu time    8.1824: real time    8.1849
 BZINTS: Fermi energy:    0.652306;  394.000000 electrons
         Band energy:-0.118794E+04;  BLOECHL correction:   -0.078029
       DOS:  cpu time    0.0101: real time    0.0101
    --------------------------------------------
      LOOP:  cpu time    8.1925: real time    8.1950

 eigenvalue-minimisations  :  5964
 total energy-change (2. order) :-0.2193440E+01  (-0.2191078E+01)
 number of electron     393.9999955 magnetization 
 augmentation part      393.9999955 magnetization 

 Free energy of the ion-electron system (eV)
  ---------------------------------------------------
  alpha Z        PSCENC =       993.72056308
  Ewald energy   TEWEN  =     96714.54992023
  -Hartree energ DENC   =   -130781.78825585
  -exchange      EXHF   =         0.00000000
  -V(xc)+E(xc)   XCENC  =       487.52764459
  PAW double counting   =     35757.51780316   -34981.40842609
  entropy T*S    EENTRO =         0.00000000
  eigenvalues    EBANDS =     -1187.93762610
  atomic energy  EATOM  =     32880.25478920
  Solvation  Ediel_sol  =         0.00000000
  ---------------------------------------------------
  free energy    TOTEN  =      -117.56358777 eV

  energy without entropy =     -117.56358777  energy(sigma->0) =     -117.56358777


--------------------------------------------------------------------------------------------------------




--------------------------------------- Iteration      1(   5)  ---------------------------------------


     EDDAV:  cpu time    8.2605: real time    8.2631
 BZINTS: Fermi energy:    0.652022;  394.000000 electrons
         Band energy:-0.118799E+04;  BLOECHL correction:   -0.078006
       DOS:  cpu time    0.0103: real time    0.0103
    --------------------------------------------
      LOOP:  cpu time    8.2708: real time    8.2734

 eigenvalue-minimisations  :  6048
 total energy-change (2. order) :-0.4818409E-01  (-0.4819468E-01)
 number of electron     393.9999955 magnetization 
 augmentation part      393.9999955 magnetization 

 Free energy of the ion-electron system (eV)
  ---------------------------------------------------
  alpha Z        PSCENC =       993.72056308
  Ewald energy   TEWEN  =     96714.54992023
  -Hartree energ DENC   =   -130781.78825585
  -exchange      EXHF   =         0.00000000
  -V(xc)+E(xc)   XCENC  =       487.52764459
  PAW double counting   =     35757.51780316   -34981.40842609
  entropy T*S    EENTRO =         0.00000000
  eigenvalues    EBANDS =     -1187.98581019
  atomic energy  EATOM  =     32880.25478920
  Solvation  Ediel_sol  =         0.00000000
  ---------------------------------------------------
  free energy    TOTEN  =      -117.61177186 eV

  energy without entropy =     -117.61177186  energy(sigma->0) =     -117.61177186


--------------------------------------------------------------------------------------------------------




--------------------------------------- Iteration      1(   6)  ---------------------------------------


    EDDIAG:  cpu time    1.4034: real time    1.4040
  RMM-DIIS:  cpu time    3.9213: real time    3.9238
    ORTHCH:  cpu time    0.2607: real time    0.2610
 BZINTS: Fermi energy:    0.652015;  394.000000 electrons
         Band energy:-0.118799E+04;  BLOECHL correction:   -0.078005
       DOS:  cpu time    0.0098: real time    0.0098
    --------------------------------------------
      LOOP:  cpu time    5.5952: real time    5.5987

 eigenvalue-minimisations  :  5040
 total energy-change (2. order) :-0.1448503E-02  (-0.1449425E-02)
 number of electron     393.9999955 magnetization 
 augmentation part      393.9999955 magnetization 

 Free energy of the ion-electron system (eV)
  ---------------------------------------------------
  alpha Z        PSCENC =       993.72056308
  Ewald energy   TEWEN  =     96714.54992023
  -Hartree energ DENC   =   -130781.78825585
  -exchange      EXHF   =         0.00000000
  -V(xc)+E(xc)   XCENC  =       487.52764459
  PAW double counting   =     35757.51780316   -34981.40842609
  entropy T*S    EENTRO =         0.00000000
  eigenvalues    EBANDS =     -1187.98725869
  atomic energy  EATOM  =     32880.25478920
  Solvation  Ediel_sol  =         0.00000000
  ---------------------------------------------------
  free energy    TOTEN  =      -117.61322036 eV

  energy without entropy =     -117.61322036  energy(sigma->0) =     -117.61322036


--------------------------------------------------------------------------------------------------------




--------------------------------------- Iteration      1(   7)  ---------------------------------------


    EDDIAG:  cpu time    1.4030: real time    1.4035
  RMM-DIIS:  cpu time    5.1469: real time    5.1485
    ORTHCH:  cpu time    0.2609: real time    0.2609
 BZINTS: Fermi energy:    0.652012;  394.000000 electrons
         Band energy:-0.118799E+04;  BLOECHL correction:   -0.078005
       DOS:  cpu time    0.0098: real time    0.0098
    --------------------------------------------
      LOOP:  cpu time    6.8206: real time    6.8227

 eigenvalue-minimisations  :  6650
 total energy-change (2. order) :-0.4329231E-03  (-0.4321242E-03)
 number of electron     393.9999955 magnetization 
 augmentation part      393.9999955 magnetization 

 Free energy of the ion-electron system (eV)
  ---------------------------------------------------
  alpha Z        PSCENC =       993.72056308
  Ewald energy   TEWEN  =     96714.54992023
  -Hartree energ DENC   =   -130781.78825585
  -exchange      EXHF   =         0.00000000
  -V(xc)+E(xc)   XCENC  =       487.52764459
  PAW double counting   =     35757.51780316   -34981.40842609
  entropy T*S    EENTRO =         0.00000000
  eigenvalues    EBANDS =     -1187.98769161
  atomic energy  EATOM  =     32880.25478920
  Solvation  Ediel_sol  =         0.00000000
  ---------------------------------------------------
  free energy    TOTEN  =      -117.61365329 eV

  energy without entropy =     -117.61365329  energy(sigma->0) =     -117.61365329


--------------------------------------------------------------------------------------------------------




--------------------------------------- Iteration      1(   8)  ---------------------------------------


    EDDIAG:  cpu time    1.4044: real time    1.4050
  RMM-DIIS:  cpu time    4.5221: real time    4.5234
    ORTHCH:  cpu time    0.2603: real time    0.2605
 BZINTS: Fermi energy:    0.652012;  394.000000 electrons
         Band energy:-0.118799E+04;  BLOECHL correction:   -0.078005
       DOS:  cpu time    0.0098: real time    0.0098
    --------------------------------------------
      LOOP:  cpu time    6.1966: real time    6.1987

 eigenvalue-minimisations  :  5823
 total energy-change (2. order) :-0.3674816E-04  (-0.3650315E-04)
 number of electron     393.9999955 magnetization 
 augmentation part      393.9999955 magnetization 

 Free energy of the ion-electron system (eV)
  ---------------------------------------------------
  alpha Z        PSCENC =       993.72056308
  Ewald energy   TEWEN  =     96714.54992023
  -Hartree energ DENC   =   -130781.78825585
  -exchange      EXHF   =         0.00000000
  -V(xc)+E(xc)   XCENC  =       487.52764459
  PAW double counting   =     35757.51780316   -34981.40842609
  entropy T*S    EENTRO =         0.00000000
  eigenvalues    EBANDS =     -1187.98772836
  atomic energy  EATOM  =     32880.25478920
  Solvation  Ediel_sol  =         0.00000000
  ---------------------------------------------------
  free energy    TOTEN  =      -117.61369003 eV

  energy without entropy =     -117.61369003  energy(sigma->0) =     -117.61369003


--------------------------------------------------------------------------------------------------------




--------------------------------------- Iteration      1(   9)  ---------------------------------------


    EDDIAG:  cpu time    1.4026: real time    1.4029
  RMM-DIIS:  cpu time    2.9853: real time    2.9863
    ORTHCH:  cpu time    0.2609: real time    0.2609
 BZINTS: Fermi energy:    0.652012;  394.000000 electrons
         Band energy:-0.118799E+04;  BLOECHL correction:   -0.078005
       DOS:  cpu time    0.0101: real time    0.0101
    --------------------------------------------
      LOOP:  cpu time    4.6590: real time    4.6603

 eigenvalue-minimisations  :  3221
 total energy-change (2. order) :-0.2618326E-05  (-0.2520986E-05)
 number of electron     393.9999955 magnetization 
 augmentation part      393.9999955 magnetization 

 Free energy of the ion-electron system (eV)
  ---------------------------------------------------
  alpha Z        PSCENC =       993.72056308
  Ewald energy   TEWEN  =     96714.54992023
  -Hartree energ DENC   =   -130781.78825585
  -exchange      EXHF   =         0.00000000
  -V(xc)+E(xc)   XCENC  =       487.52764459
  PAW double counting   =     35757.51780316   -34981.40842609
  entropy T*S    EENTRO =         0.00000000
  eigenvalues    EBANDS =     -1187.98773098
  atomic energy  EATOM  =     32880.25478920
  Solvation  Ediel_sol  =         0.00000000
  ---------------------------------------------------
  free energy    TOTEN  =      -117.61369265 eV

  energy without entropy =     -117.61369265  energy(sigma->0) =     -117.61369265


--------------------------------------------------------------------------------------------------------




 average (electrostatic) potential at core
  the test charge radii are     1.2098  1.2511  0.5201
  (the norm of the test charge is              1.0000)
       1 -72.3873       2 -72.3786       3 -72.3785       4 -72.3786       5 -72.3847
       6 -72.3783       7 -72.3785       8 -72.3783       9 -72.3825      10 -72.7313
      11 -72.6917      12 -72.7312      13 -72.6917      14 -72.6915      15 -72.7165
      16 -72.7312      17 -72.7165      18 -72.7167      19 -72.6667      20 -72.7519
      21 -72.7519      22 -72.6788      23 -72.7519      24 -72.6786      25 -72.6669
      26 -72.6667      27 -72.6788      28 -72.2896      29 -72.2979      30 -72.2980
      31 -72.2979      32 -72.2978      33 -72.2980      34 -72.2978      35 -72.2933
      36 -66.8844      37 -35.0879
 
 
 
 E-fermi :   0.6520     XC(G=0):  -6.1086     alpha+bet : -5.7637

 Fermi energy:         0.6520121234

 k-point     1 :       0.0000    0.0000    0.0000
  band No.  band energies     occupation 
      1      -8.1553      2.00000
      2      -6.9618      2.00000
      3      -6.0391      2.00000
      4      -6.0125      2.00000
      5      -6.0024      2.00000
      6      -6.0024      2.00000
      7      -5.9861      2.00000
      8      -5.9776      2.00000
      9      -5.9775      2.00000
     10      -5.8573      2.00000
     11      -5.5255      2.00000
     12      -5.5081      2.00000
     13      -5.5081      2.00000
     14      -5.4874      2.00000
     15      -5.4874      2.00000
     16      -5.4813      2.00000
     17      -5.1285      2.00000
     18      -5.1285      2.00000
     19      -5.1264      2.00000
     20      -5.1101      2.00000
     21      -5.1009      2.00000
     22      -5.1009      2.00000
     23      -4.9524      2.00000
     24      -4.9502      2.00000
     25      -4.9502      2.00000
     26      -4.9362      2.00000
     27      -4.9276      2.00000
     28      -4.9275      2.00000
     29      -4.7938      2.00000
     30      -4.7938      2.00000
     31      -4.7745      2.00000
     32      -4.7745      2.00000
     33      -4.7706      2.00000
     34      -4.7550      2.00000
     35      -4.7470      2.00000
     36      -4.7470      2.00000
     37      -4.7419      2.00000
     38      -4.6451      2.00000
     39      -4.6451      2.00000
     40      -4.6106      2.00000
     41      -4.2843      2.00000
     42      -4.2843      2.00000
     43      -4.2641      2.00000
     44      -4.2117      2.00000
     45      -4.2117      2.00000
     46      -4.2051      2.00000
     47      -4.2051      2.00000
     48      -4.2036      2.00000
     49      -4.1748      2.00000
     50      -4.1747      2.00000
     51      -4.1313      2.00000
     52      -4.1212      2.00000
     53      -4.0741      2.00000
     54      -4.0408      2.00000
     55      -3.7062      2.00000
     56      -3.6905      2.00000
     57      -3.6768      2.00000
     58      -3.6730      2.00000
     59      -3.6729      2.00000
     60      -3.6583      2.00000
     61      -3.6582      2.00000
     62      -3.6280      2.00000
     63      -3.6280      2.00000
     64      -3.5658      2.00000
     65      -3.5658      2.00000
     66      -3.5200      2.00000
     67      -3.5200      2.00000
     68      -3.5136      2.00000
     69      -3.4627      2.00000
     70      -3.4404      2.00000
     71      -3.4404      2.00000
     72      -3.4338      2.00000
     73      -3.4185      2.00000
     74      -3.4185      2.00000
     75      -3.4147      2.00000
     76      -3.4109      2.00000
     77      -3.4109      2.00000
     78      -3.3891      2.00000
     79      -3.3891      2.00000
     80      -3.3452      2.00000
     81      -3.3452      2.00000
     82      -3.3286      2.00000
     83      -3.3228      2.00000
     84      -3.3004      2.00000
     85      -3.3003      2.00000
     86      -3.2894      2.00000
     87      -3.2894      2.00000
     88      -3.2848      2.00000
     89      -3.2108      2.00000
     90      -3.2108      2.00000
     91      -3.0343      2.00000
     92      -3.0343      2.00000
     93      -3.0216      2.00000
     94      -3.0216      2.00000
     95      -3.0114      2.00000
     96      -3.0114      2.00000
     97      -2.9554      2.00000
     98      -2.8799      2.00000
     99      -2.8799      2.00000
    100      -2.8148      2.00000
    101      -2.8148      2.00000
    102      -2.8062      2.00000
    103      -2.7571      2.00000
    104      -2.7571      2.00000
    105      -2.7295      2.00000
    106      -2.6510      2.00000
    107      -2.6510      2.00000
    108      -2.6080      2.00000
    109      -2.5965      2.00000
    110      -2.5965      2.00000
    111      -2.5734      2.00000
    112      -2.5412      2.00000
    113      -2.5412      2.00000
    114      -2.5011      2.00000
    115      -2.4955      2.00000
    116      -2.3582      2.00000
    117      -2.3227      2.00000
    118      -2.3227      2.00000
    119      -2.3130      2.00000
    120      -2.3130      2.00000
    121      -2.2953      2.00000
    122      -2.2577      2.00000
    123      -2.2577      2.00000
    124      -2.2387      2.00000
    125      -2.2387      2.00000
    126      -2.1656      2.00000
    127      -2.1656      2.00000
    128      -2.1628      2.00000
    129      -2.0583      2.00000
    130      -2.0583      2.00000
    131      -2.0562      2.00000
    132      -2.0398      2.00000
    133      -2.0398      2.00000
    134      -2.0369      2.00000
    135      -2.0081      2.00000
    136      -2.0081      2.00000
    137      -1.9977      2.00000
    138      -1.9959      2.00000
    139      -1.9959      2.00000
    140      -1.9108      2.00000
    141      -1.9107      2.00000
    142      -1.8580      2.00000
    143      -1.7912      2.00000
    144      -1.7912      2.00000
    145      -1.7660      2.00000
    146      -1.7660      2.00000
    147      -1.7608      2.00000
    148      -1.7608      2.00000
    149      -1.7590      2.00000
    150      -1.7420      2.00000
    151      -1.7283      2.00000
    152      -1.7283      2.00000
    153      -1.7280      2.00000
    154      -1.7120      2.00000
    155      -1.6072      2.00000
    156      -1.5965      2.00000
    157      -1.5945      2.00000
    158      -1.5944      2.00000
    159      -1.5884      2.00000
    160      -1.5729      2.00000
    161      -1.5729      2.00000
    162      -1.5706      2.00000
    163      -1.5269      2.00000
    164      -1.5269      2.00000
    165      -1.5228      2.00000
    166      -1.5228      2.00000
    167      -1.4988      2.00000
    168      -1.4988      2.00000
    169      -1.4903      2.00000
    170      -1.4903      2.00000
    171      -1.4809      2.00000
    172      -1.4760      2.00000
    173      -1.4748      2.00000
    174      -1.4748      2.00000
    175      -1.4658      2.00000
    176      -1.4300      2.00000
    177      -1.4046      2.00000
    178      -1.4046      2.00000
    179      -1.4014      2.00000
    180      -1.3730      2.00000
    181      -1.3730      2.00000
    182      -1.3344      2.00000
    183      -1.3016      2.00000
    184      -1.3016      2.00000
    185      -1.2107      2.00000
    186      -1.2107      2.00000
    187      -1.1862      2.00000
    188      -1.1672      2.00000
    189      -1.1672      2.00000
    190      -1.1514      2.00000
    191      -1.1309      2.00000
    192      -0.3189      2.00000
    193      -0.0574      2.00000
    194      -0.0573      2.00000
    195      -0.0128      2.00000
    196       0.0951      2.00000
    197       0.0951      2.00000
    198       0.1258      2.00000
    199       0.4303      2.00000
    200       0.4303      2.00000
    201       0.4874      2.85411
    202       0.4874      2.03516
    203       1.0702      0.00000
    204       1.9667      0.00000
    205       2.2408      0.00000
    206       2.2967      0.00000
    207       2.2967      0.00000
    208       2.4950      0.00000
    209       2.4950      0.00000
    210       3.4538      0.00000
    211       3.4538      0.00000
    212       3.5100      0.00000
    213       3.5289      0.00000
    214       3.5289      0.00000
    215       3.6185      0.00000
    216       4.1076      0.00000
    217       4.1634      0.00000
    218       5.0256      0.00000
    219       5.3066      0.00000
    220       5.3479      0.00000
    221       5.3616      0.00000
    222       5.3617      0.00000
    223       5.4002      0.00000
    224       5.4003      0.00000
    225       5.4857      0.00000
    226       5.4857      0.00000
    227       5.5335      0.00000
    228       5.5335      0.00000
    229       5.6912      0.00000
    230       5.9188      0.00000
    231       6.1487      0.00000
    232       6.8670      0.00000
    233       6.9579      0.00000
    234       7.0289      0.00000
    235       7.0636      0.00000
    236       7.0637      0.00000
    237       7.0759      0.00000
    238       7.0809      0.00000
    239       7.0810      0.00000
    240       7.1384      0.00000
    241       7.1386      0.00000
    242       7.2057      0.00000
    243       7.2063      0.00000
    244       7.3218      0.00000
    245       7.3940      0.00000
    246       7.3947      0.00000
    247       7.4434      0.00000
    248       7.4435      0.00000
    249       7.5090      0.00000
    250       7.6505      0.00000
    251       7.8533      0.00000
    252       8.0060      0.00000

 k-point     2 :       0.1250   -0.0000    0.0000
  band No.  band energies     occupation 
      1      -8.1043      2.00000
      2      -6.9119      2.00000
      3      -6.2465      2.00000
      4      -6.0724      2.00000
      5      -6.0662      2.00000
      6      -5.9876      2.00000
      7      -5.8873      2.00000
      8      -5.8754      2.00000
      9      -5.8633      2.00000
     10      -5.8109      2.00000
     11      -5.5481      2.00000
     12      -5.5190      2.00000
     13      -5.4933      2.00000
     14      -5.4846      2.00000
     15      -5.4620      2.00000
     16      -5.4562      2.00000
     17      -5.1835      2.00000
     18      -5.1302      2.00000
     19      -5.1251      2.00000
     20      -5.0859      2.00000
     21      -5.0719      2.00000
     22      -5.0708      2.00000
     23      -5.0232      2.00000
     24      -4.9669      2.00000
     25      -4.9667      2.00000
     26      -4.9094      2.00000
     27      -4.8966      2.00000
     28      -4.8565      2.00000
     29      -4.8529      2.00000
     30      -4.8346      2.00000
     31      -4.8341      2.00000
     32      -4.8217      2.00000
     33      -4.7593      2.00000
     34      -4.7306      2.00000
     35      -4.7223      2.00000
     36      -4.6515      2.00000
     37      -4.6414      2.00000
     38      -4.6154      2.00000
     39      -4.6064      2.00000
     40      -4.5746      2.00000
     41      -4.3541      2.00000
     42      -4.3511      2.00000
     43      -4.2985      2.00000
     44      -4.2765      2.00000
     45      -4.2545      2.00000
     46      -4.2485      2.00000
     47      -4.2371      2.00000
     48      -4.1659      2.00000
     49      -4.1428      2.00000
     50      -4.1102      2.00000
     51      -4.0794      2.00000
     52      -4.0766      2.00000
     53      -4.0585      2.00000
     54      -4.0374      2.00000
     55      -3.7577      2.00000
     56      -3.7221      2.00000
     57      -3.7142      2.00000
     58      -3.7029      2.00000
     59      -3.7023      2.00000
     60      -3.6807      2.00000
     61      -3.6633      2.00000
     62      -3.6615      2.00000
     63      -3.6467      2.00000
     64      -3.6065      2.00000
     65      -3.6048      2.00000
     66      -3.5862      2.00000
     67      -3.5833      2.00000
     68      -3.5459      2.00000
     69      -3.5454      2.00000
     70      -3.5362      2.00000
     71      -3.4954      2.00000
     72      -3.4646      2.00000
     73      -3.4610      2.00000
     74      -3.4508      2.00000
     75      -3.4367      2.00000
     76      -3.4241      2.00000
     77      -3.3772      2.00000
     78      -3.3699      2.00000
     79      -3.3693      2.00000
     80      -3.3582      2.00000
     81      -3.3210      2.00000
     82      -3.2991      2.00000
     83      -3.2741      2.00000
     84      -3.2714      2.00000
     85      -3.2554      2.00000
     86      -3.2542      2.00000
     87      -3.2302      2.00000
     88      -3.2290      2.00000
     89      -3.1825      2.00000
     90      -3.1402      2.00000
     91      -3.1274      2.00000
     92      -3.1270      2.00000
     93      -3.0480      2.00000
     94      -3.0255      2.00000
     95      -2.9853      2.00000
     96      -2.9329      2.00000
     97      -2.9182      2.00000
     98      -2.9104      2.00000
     99      -2.8810      2.00000
    100      -2.8736      2.00000
    101      -2.8469      2.00000
    102      -2.8349      2.00000
    103      -2.7914      2.00000
    104      -2.7825      2.00000
    105      -2.6886      2.00000
    106      -2.6812      2.00000
    107      -2.6698      2.00000
    108      -2.6349      2.00000
    109      -2.6193      2.00000
    110      -2.6152      2.00000
    111      -2.6049      2.00000
    112      -2.5965      2.00000
    113      -2.5684      2.00000
    114      -2.5481      2.00000
    115      -2.5412      2.00000
    116      -2.5210      2.00000
    117      -2.4999      2.00000
    118      -2.4994      2.00000
    119      -2.4549      2.00000
    120      -2.3526      2.00000
    121      -2.3396      2.00000
    122      -2.2920      2.00000
    123      -2.2779      2.00000
    124      -2.2556      2.00000
    125      -2.2334      2.00000
    126      -2.2221      2.00000
    127      -2.2068      2.00000
    128      -2.2022      2.00000
    129      -2.1825      2.00000
    130      -2.1464      2.00000
    131      -2.1360      2.00000
    132      -2.1166      2.00000
    133      -2.1076      2.00000
    134      -2.0460      2.00000
    135      -2.0395      2.00000
    136      -2.0242      2.00000
    137      -2.0063      2.00000
    138      -1.9723      2.00000
    139      -1.9555      2.00000
    140      -1.9526      2.00000
    141      -1.9326      2.00000
    142      -1.8952      2.00000
    143      -1.8758      2.00000
    144      -1.8548      2.00000
    145      -1.8394      2.00000
    146      -1.7794      2.00000
    147      -1.7707      2.00000
    148      -1.7625      2.00000
    149      -1.7271      2.00000
    150      -1.7241      2.00000
    151      -1.7085      2.00000
    152      -1.7032      2.00000
    153      -1.6437      2.00000
    154      -1.6370      2.00000
    155      -1.6096      2.00000
    156      -1.6080      2.00000
    157      -1.5888      2.00000
    158      -1.5799      2.00000
    159      -1.5627      2.00000
    160      -1.5599      2.00000
    161      -1.5403      2.00000
    162      -1.5312      2.00000
    163      -1.5263      2.00000
    164      -1.5074      2.00000
    165      -1.5060      2.00000
    166      -1.4942      2.00000
    167      -1.4877      2.00000
    168      -1.4733      2.00000
    169      -1.4530      2.00000
    170      -1.4265      2.00000
    171      -1.4188      2.00000
    172      -1.4179      2.00000
    173      -1.4028      2.00000
    174      -1.3558      2.00000
    175      -1.3433      2.00000
    176      -1.3208      2.00000
    177      -1.3162      2.00000
    178      -1.2678      2.00000
    179      -1.2636      2.00000
    180      -1.2501      2.00000
    181      -1.2426      2.00000
    182      -1.2123      2.00000
    183      -1.1999      2.00000
    184      -1.1939      2.00000
    185      -1.1799      2.00000
[...]
  0.000   0.000   0.000   0.000   0.000   0.000   0.000   0.000   0.000   0.000   0.000   0.000   0.000   0.000   0.000   0.000
  0.000   0.000   0.000   0.000   0.000   0.000   0.000   0.000   0.000   0.000   0.000   0.000   0.000   0.000   0.000   0.000
  0.000   0.000   0.000   0.000   0.000   0.000   0.000   0.000   0.000   0.000   0.000   0.000   0.000   0.000   0.000   0.000
  0.000   0.000   0.000   0.000   0.000   0.000   0.000   0.000   0.000   0.000   0.000   0.000   0.000   0.000   0.000   0.000
  0.000   0.000   0.000   0.000   0.000   0.000   0.000   0.000   0.000   0.000   0.000   0.000   0.000   0.000   0.000   0.000
  0.000   0.000   0.000   0.000   0.000   0.000   0.000   0.000   0.000   0.000   1.000   0.000   0.000   0.000   0.000   0.000
  0.000   0.000   0.000   0.000   0.000   0.000   0.000   0.000   0.000   0.000   0.000   0.000   0.000   0.000   0.000   0.000
  0.000   0.000   0.000   0.000   0.000   0.000   0.000   0.000   0.000   0.000   0.000   0.000   0.000   0.000   0.000   0.000
  0.000   0.000   0.000   0.000   0.000   0.000   0.000   0.000   0.000   0.000   0.000   0.000   0.000   0.000   0.000   0.000
  0.000   0.000   0.000   0.000   0.000   0.000   0.000   0.000   0.000   0.000   0.000   0.000   0.000   0.000   0.000   0.000
  0.000   0.000   0.000   0.000   0.000   0.000   0.000   0.000   0.000   0.000   0.000   0.000   0.000   0.000   0.000   0.000
  0.000   0.000   0.000   0.000   0.000   0.000   0.000   0.000   0.000   0.000   0.000   0.000   0.000   0.000   0.000   0.000
  0.000   0.000   0.000   0.000   0.000   0.000   0.000   0.000   0.000   0.000   0.000   0.000   0.000   0.000   0.000   0.000


------------------------ aborting loop because EDIFF is reached ----------------------------------------





 total charge

# of ion       s       p       d       tot
------------------------------------------
    1        0.547   0.237   8.769   9.553
    2        0.544   0.241   8.765   9.549
    3        0.544   0.241   8.765   9.549
    4        0.544   0.241   8.765   9.549
    5        0.545   0.241   8.760   9.546
    6        0.544   0.241   8.765   9.549
    7        0.544   0.241   8.765   9.549
    8        0.544   0.241   8.765   9.549
    9        0.543   0.238   8.768   9.549
   10        0.524   0.309   8.768   9.600
   11        0.523   0.308   8.780   9.611
   12        0.524   0.309   8.768   9.600
   13        0.523   0.308   8.780   9.611
   14        0.523   0.308   8.780   9.611
   15        0.517   0.308   8.777   9.602
   16        0.524   0.309   8.768   9.600
   17        0.517   0.308   8.777   9.602
   18        0.517   0.308   8.777   9.602
   19        0.515   0.301   8.775   9.591
   20        0.552   0.326   8.752   9.629
   21        0.552   0.326   8.752   9.629
   22        0.508   0.308   8.777   9.593
   23        0.552   0.326   8.752   9.629
   24        0.508   0.308   8.777   9.593
   25        0.515   0.301   8.775   9.591
   26        0.515   0.301   8.775   9.591
   27        0.508   0.308   8.777   9.593
   28        0.538   0.227   8.762   9.527
   29        0.555   0.242   8.746   9.542
   30        0.555   0.242   8.746   9.542
   31        0.555   0.242   8.746   9.542
   32        0.555   0.242   8.746   9.542
   33        0.555   0.242   8.746   9.542
   34        0.555   0.242   8.746   9.542
   35        0.532   0.228   8.765   9.525
   36        0.486   0.492   6.566   7.545
   37        0.514   0.019   0.000   0.533
--------------------------------------------------
tot         19.708  10.156 313.339 343.204
 
    CHARGE:  cpu time    0.3325: real time    0.3329
    FORLOC:  cpu time    0.0100: real time    0.0101
    FORNL :  cpu time    1.4439: real time    1.4443
    STRESS:  cpu time    4.3217: real time    4.3230
    FORCOR:  cpu time    0.0420: real time    0.0423
    FORHAR:  cpu time    0.0165: real time    0.0166
    OFIELD:  cpu time    0.0002: real time    0.0002

  FORCE on cell =-STRESS in cart. coord.  units (eV):
  Direction    XX          YY          ZZ          XY          YZ          ZX
  --------------------------------------------------------------------------------------
  Alpha Z   993.72056   993.72056   993.72056
  Ewald  119318.70495119318.70535************    -0.00033    -0.00009    -0.00016
  Hartree127887.91804127887.91804************     0.00000    -0.00002    -0.00004
  E(xc)   -1767.64467 -1767.64466 -1775.53076    -0.00001    -0.00000    -0.00000
  Local  ************************259766.78275     0.00175     0.00005     0.00008
  n-local   -80.44555   -24.05236   -18.38688    27.69786    -1.50342     1.83194
  augment  2411.32104  2411.32258  2428.82023    -0.00134     0.00001     0.00004
  Kinetic  5438.51869  5454.06641  5502.73021     7.93712    -0.39539     0.82412
  Fock        0.00000     0.00000     0.00000     0.00000     0.00000     0.00000
  -------------------------------------------------------------------------------------
  Total     -22.62501   -22.62501     3.91093    -0.00000     0.00000    -0.00000
  in kB     -24.27683   -24.27683     4.19646    -0.00000     0.00000    -0.00000
  external pressure =      -14.79 kB  Pullay stress =        0.00 kB


 VOLUME and BASIS-vectors are now :
 -----------------------------------------------------------------------------
  energy-cutoff  :      500.00
  volume of cell :     1493.16
      direct lattice vectors                 reciprocal lattice vectors
     8.813512802  0.000000000  0.000000000     0.113462137 -0.065507406  0.000000000
     4.406756909  7.632725690  0.000000000     0.000000000  0.131014796  0.000000000
     0.000000000  0.000000000 22.196203232     0.000000000  0.000000000  0.045052750

  length of vectors
     8.813512802  8.813512802 22.196203232     0.131014796  0.131014796  0.045052750


 FORCES acting on ions
    electron-ion (+dipol)            ewald-force                    non-local-force                 convergence-correction
 -----------------------------------------------------------------------------------------------
   -.198E-04 -.163E-04 0.248E+04   0.519E-04 0.433E-04 -.247E+04   -.922E-17 0.350E-17 -.804E+00   -.182E-03 -.118E-03 -.295E+00
   0.326E+00 0.160E+00 0.248E+04   -.406E+00 -.221E+00 -.247E+04   0.468E-01 0.821E-01 -.274E+00   0.342E-01 -.164E-01 -.374E+00
   -.326E+00 0.160E+00 0.248E+04   0.406E+00 -.221E+00 -.247E+04   -.468E-01 0.821E-01 -.274E+00   -.339E-01 -.144E-01 -.373E+00
   0.302E+00 0.203E+00 0.248E+04   -.395E+00 -.241E+00 -.247E+04   0.945E-01 -.489E-03 -.274E+00   0.299E-02 0.377E-01 -.374E+00
   0.699E-05 -.243E-04 0.248E+04   0.951E-04 0.173E-05 -.248E+04   0.143E-17 -.176E-17 -.803E-01   0.424E-02 0.258E-02 -.416E+00
   -.302E+00 0.203E+00 0.248E+04   0.395E+00 -.241E+00 -.247E+04   -.945E-01 -.489E-03 -.274E+00   -.449E-02 0.387E-01 -.373E+00
   -.247E-01 -.363E+00 0.248E+04   0.115E-01 0.462E+00 -.247E+04   0.477E-01 -.816E-01 -.274E+00   -.294E-01 -.222E-01 -.373E+00
   0.247E-01 -.363E+00 0.248E+04   -.116E-01 0.462E+00 -.247E+04   -.477E-01 -.816E-01 -.274E+00   0.313E-01 -.232E-01 -.373E+00
   0.197E-04 -.415E-04 0.248E+04   0.166E-03 -.200E-04 -.248E+04   -.810E-18 0.158E-17 -.542E+00   -.461E-02 -.238E-02 -.389E+00
   0.400E+01 0.231E+01 0.815E+03   -.361E+01 -.208E+01 -.814E+03   -.318E+00 -.183E+00 -.710E+00   -.705E-01 -.408E-01 0.268E+00
   0.143E-04 0.361E+01 0.819E+03   0.148E-03 -.360E+01 -.819E+03   0.433E-08 0.650E-01 -.237E+00   0.364E-02 -.117E+00 0.294E+00
   -.400E+01 0.231E+01 0.815E+03   0.361E+01 -.208E+01 -.814E+03   0.318E+00 -.183E+00 -.710E+00   0.693E-01 -.397E-01 0.267E+00
   0.313E+01 -.181E+01 0.819E+03   -.312E+01 0.180E+01 -.819E+03   0.563E-01 -.325E-01 -.237E+00   -.995E-01 0.621E-01 0.294E+00
   -.313E+01 -.181E+01 0.819E+03   0.311E+01 0.180E+01 -.819E+03   -.563E-01 -.325E-01 -.237E+00   0.107E+00 0.616E-01 0.293E+00
   0.316E-04 0.282E+01 0.817E+03   0.236E-03 -.297E+01 -.817E+03   0.428E-08 0.643E-01 -.542E+00   -.208E-02 0.509E-01 0.327E+00
   -.213E-04 -.462E+01 0.815E+03   0.162E-03 0.417E+01 -.814E+03   0.244E-07 0.367E+00 -.710E+00   0.375E-04 0.799E-01 0.267E+00
   0.244E+01 -.141E+01 0.817E+03   -.258E+01 0.149E+01 -.817E+03   0.557E-01 -.321E-01 -.542E+00   0.433E-01 -.268E-01 0.327E+00
   -.244E+01 -.141E+01 0.817E+03   0.258E+01 0.149E+01 -.817E+03   -.557E-01 -.321E-01 -.542E+00   -.433E-01 -.252E-01 0.327E+00
   -.406E-04 0.108E+01 -.872E+03   0.543E-04 -.130E+01 0.871E+03   0.465E-08 0.698E-01 0.568E+00   0.346E-02 0.136E+00 0.947E+00
   0.524E+01 0.302E+01 -.850E+03   -.439E+01 -.253E+01 0.850E+03   -.101E+01 -.581E+00 -.913E+00   0.944E-01 0.544E-01 0.127E+01
   -.524E+01 0.302E+01 -.850E+03   0.439E+01 -.253E+01 0.850E+03   0.101E+01 -.581E+00 -.913E+00   -.951E-01 0.555E-01 0.126E+01
   -.564E+01 0.326E+01 -.864E+03   0.530E+01 -.306E+01 0.862E+03   0.385E+00 -.222E+00 0.542E+00   -.171E-01 0.849E-02 0.987E+00
   -.107E-04 -.605E+01 -.850E+03   0.141E-03 0.507E+01 0.850E+03   0.773E-07 0.116E+01 -.913E+00   0.242E-03 -.110E+00 0.126E+01
   0.564E+01 0.326E+01 -.864E+03   -.530E+01 -.306E+01 0.862E+03   -.385E+00 -.222E+00 0.542E+00   0.168E-01 0.973E-02 0.987E+00
   -.935E+00 -.540E+00 -.872E+03   0.112E+01 0.648E+00 0.871E+03   -.604E-01 -.349E-01 0.568E+00   -.113E+00 -.651E-01 0.946E+00
   0.935E+00 -.540E+00 -.872E+03   -.112E+01 0.648E+00 0.871E+03   0.604E-01 -.349E-01 0.568E+00   0.120E+00 -.650E-01 0.947E+00
   0.854E-05 -.651E+01 -.864E+03   0.200E-03 0.612E+01 0.862E+03   0.296E-07 0.444E+00 0.542E+00   -.175E-02 -.191E-01 0.987E+00
   -.933E-05 -.110E-04 -.249E+04   0.270E-04 0.314E-04 0.249E+04   -.969E-18 0.709E-17 0.648E+00   0.275E-03 0.142E-03 0.634E+00
   0.168E+01 0.219E+01 -.248E+04   -.121E+01 -.157E+01 0.248E+04   -.606E+00 -.871E+00 0.297E+00   0.152E+00 0.254E+00 0.527E+00
   -.168E+01 0.219E+01 -.248E+04   0.121E+01 -.157E+01 0.248E+04   0.606E+00 -.871E+00 0.297E+00   -.152E+00 0.255E+00 0.528E+00
   0.273E+01 0.360E+00 -.248E+04   -.196E+01 -.266E+00 0.248E+04   -.106E+01 -.895E-01 0.297E+00   0.296E+00 0.448E-02 0.527E+00
   -.273E+01 0.360E+00 -.248E+04   0.196E+01 -.266E+00 0.248E+04   0.106E+01 -.895E-01 0.297E+00   -.296E+00 0.567E-02 0.528E+00
   0.106E+01 -.255E+01 -.248E+04   -.751E+00 0.183E+01 0.248E+04   -.451E+00 0.960E+00 0.297E+00   0.145E+00 -.259E+00 0.528E+00
   -.106E+01 -.255E+01 -.248E+04   0.751E+00 0.183E+01 0.248E+04   0.451E+00 0.960E+00 0.297E+00   -.143E+00 -.259E+00 0.528E+00
   0.313E-04 -.318E-04 -.249E+04   0.146E-03 -.465E-04 0.249E+04   -.555E-18 0.230E-17 0.734E+00   -.457E-02 -.234E-02 0.462E+00
   -.202E-04 -.907E-05 -.170E+04   0.824E-04 0.740E-05 0.171E+04   -.376E-17 -.167E-17 -.454E+01   0.167E-02 0.102E-02 0.447E+00
   0.618E-05 -.391E-05 -.284E+03   0.452E-05 0.284E-06 0.287E+03   -.126E-18 0.601E-19 -.253E+01   0.992E-04 0.601E-04 -.790E-01
 -----------------------------------------------------------------------------------------------
   -.784E-03 -.782E-03 -.231E+01   0.322E-13 -.363E-13 0.239E-11   0.273E-15 0.334E-15 -.109E+02   0.143E-01 0.886E-02 0.135E+02
 
 
 POSITION                                       TOTAL-FORCE (eV/Angst)
 -----------------------------------------------------------------------------------
      0.00000      0.00000      5.28038         0.000000     -0.000000     -0.159260
      2.93784      0.00000      5.28038         0.001564      0.005380     -0.073669
      5.87568      0.00000      5.28038        -0.001564      0.005380     -0.073669
      1.46892      2.54424      5.28038         0.005441     -0.001336     -0.073669
      4.40676      2.54424      5.28038         0.000000     -0.000000     -0.128721
      7.34459      2.54424      5.28038        -0.005441     -0.001336     -0.073669
      2.93784      5.08848      5.28038         0.003877     -0.004044     -0.073669
      5.87568      5.08848      5.28038        -0.003877     -0.004044     -0.073669
      8.81351      5.08848      5.28038         0.000000     -0.000000     -0.106420
      1.46892      0.84808      7.67911         0.003725      0.002151      0.116660
      4.40676      0.84808      7.67911        -0.000000     -0.039954      0.066244
      7.34459      0.84808      7.67911        -0.003725      0.002151      0.116660
      2.93784      3.39232      7.67911        -0.034601      0.019977      0.066244
      5.87568      3.39232      7.67911         0.034601      0.019977      0.066244
      8.81351      3.39232      7.67911        -0.000000     -0.039895      0.099150
      4.40676      5.93656      7.67911        -0.000000     -0.004301      0.116660
      7.34459      5.93656      7.67911        -0.034550      0.019947      0.099150
     10.28243      5.93656      7.67911         0.034550      0.019947      0.099150
      8.81351      1.69681     10.07567        -0.000000     -0.013009     -0.002319
      2.94232      1.69875     10.04120        -0.063283     -0.036537     -0.119777
      5.87120      1.69875     10.04120         0.063283     -0.036537     -0.119777
     10.26751      4.24902     10.06295         0.031586     -0.018236     -0.015434
      4.40676      4.23523     10.04120         0.000000      0.073073     -0.119777
      7.35952      4.24902     10.06295        -0.031586     -0.018236     -0.015434
     11.75079      6.78432     10.07567         0.011266      0.006504     -0.002319
      5.87624      6.78432     10.07567        -0.011266      0.006504     -0.002319
      8.81351      6.76742     10.06295         0.000000      0.036473     -0.015434
      0.00000      0.00000     12.49459         0.000000     -0.000000     -0.014230
      2.96623      0.05046     12.47837         0.012293      0.003437      0.034312
      5.84728      0.05046     12.47837        -0.012293      0.003437      0.034312
      1.52682      2.54360     12.47837         0.009123      0.008928      0.034312
      7.28669      2.54360     12.47837        -0.009123      0.008928      0.034312
      2.96734      5.03866     12.47837        -0.003171     -0.012365      0.034312
      5.84617      5.03866     12.47837         0.003171     -0.012365      0.034312
      8.81351      5.08848     12.49555         0.000000     -0.000000      0.019143
      4.40676      2.54424     12.24198         0.000000     -0.000000      0.201571
      4.40676      2.54424     13.83636         0.000000     -0.000000     -0.009513
 -----------------------------------------------------------------------------------
    total drift:                                0.013533      0.008075      0.381713


--------------------------------------------------------------------------------------------------------



  FREE ENERGIE OF THE ION-ELECTRON SYSTEM (eV)
  ---------------------------------------------------
  free  energy   TOTEN  =      -117.61369265 eV

  energy  without entropy=     -117.61369265  energy(sigma->0) =     -117.61369265
 


--------------------------------------------------------------------------------------------------------


    POTLOK:  cpu time    0.0448: real time    0.0448


--------------------------------------------------------------------------------------------------------


 stress matrix after NEB project (eV)
    -22.62501     -0.00000     -0.00000
     -0.00000    -22.62501     -0.00000
      0.00000      0.00000      3.91093
  FORCES: max atom, RMS     0.009513    0.001564
  FORCE total and by dimension    0.009513    0.009513
  Stress total and by dimension   32.234722   22.625009
     LOOP+:  cpu time   69.0601: real time   69.0926
 -----------------------------------------------------------------------------
|                                                                             |
|           W    W    AA    RRRRR   N    N  II  N    N   GGGG   !!!           |
|           W    W   A  A   R    R  NN   N  II  NN   N  G    G  !!!           |
|           W    W  A    A  R    R  N N  N  II  N N  N  G       !!!           |
|           W WW W  AAAAAA  RRRRR   N  N N  II  N  N N  G  GGG   !            |
|           WW  WW  A    A  R   R   N   NN  II  N   NN  G    G                |
|           W    W  A    A  R    R  N    N  II  N    N   GGGG   !!!           |
|                                                                             |
|     Tetrahedron method does not include variations of the Fermi             |
|     occupations, so forces and stress will be inaccurate. We suggest        |
|     using a different smearing scheme ISMEAR = 1 or 2 for metals in         |
|     relaxations.                                                            |
|                                                                             |
 -----------------------------------------------------------------------------

    4ORBIT:  cpu time    0.0000: real time    0.0000



 total charge

# of ion       s       p       d       tot
------------------------------------------
    1        0.547   0.237   8.769   9.553
    2        0.544   0.241   8.765   9.549
    3        0.544   0.241   8.765   9.549
    4        0.544   0.241   8.765   9.549
    5        0.545   0.241   8.760   9.546
    6        0.544   0.241   8.765   9.549
    7        0.544   0.241   8.765   9.549
    8        0.544   0.241   8.765   9.549
    9        0.543   0.238   8.768   9.549
   10        0.524   0.309   8.768   9.600
   11        0.523   0.308   8.780   9.611
   12        0.524   0.309   8.768   9.600
   13        0.523   0.308   8.780   9.611
   14        0.523   0.308   8.780   9.611
   15        0.517   0.308   8.777   9.602
   16        0.524   0.309   8.768   9.600
   17        0.517   0.308   8.777   9.602
   18        0.517   0.308   8.777   9.602
   19        0.515   0.301   8.775   9.591
   20        0.552   0.326   8.752   9.629
   21        0.552   0.326   8.752   9.629
   22        0.508   0.308   8.777   9.593
   23        0.552   0.326   8.752   9.629
   24        0.508   0.308   8.777   9.593
   25        0.515   0.301   8.775   9.591
   26        0.515   0.301   8.775   9.591
   27        0.508   0.308   8.777   9.593
   28        0.538   0.227   8.762   9.527
   29        0.555   0.242   8.746   9.542
   30        0.555   0.242   8.746   9.542
   31        0.555   0.242   8.746   9.542
   32        0.555   0.242   8.746   9.542
   33        0.555   0.242   8.746   9.542
   34        0.555   0.242   8.746   9.542
   35        0.532   0.228   8.765   9.525
   36        0.486   0.492   6.566   7.545
   37        0.514   0.019   0.000   0.533
--------------------------------------------------
tot         19.708  10.156 313.339 343.204
 
 BZINTS: Fermi energy:    0.652012;  394.000000 electrons
         Band energy:-0.118799E+04;  BLOECHL correction:   -0.078005

 total amount of memory used by VASP MPI-rank0   122394. kBytes
=======================================================================

   base      :      30000. kBytes
   nonlr-proj:      14009. kBytes
   fftplans  :       4330. kBytes
   grid      :      17879. kBytes
   one-center:        575. kBytes
   wavefun   :      55601. kBytes
 
  
  
 General timing and accounting informations for this job:
 ========================================================
  
                  Total CPU time used (sec):       76.381
                            User time (sec):       73.498
                          System time (sec):        2.883
                         Elapsed time (sec):       76.751
  
                   Maximum memory used (kb):      380172.
                   Average memory used (kb):          N/A
  
                          Minor page faults:        72558
                          Major page faults:            0
                 Voluntary context switches:         4588
