PROCAR new format
# of k-points:   10         # of bands:  252         # of ions:   37

 k-point     1 :    0.00000000 0.00000000 0.00000000     weight = 0.01562500

band     1 # energy   -8.15533651 # occ.  2.00000000
 
ion      s      p      d    tot
    1  0.007  0.001  0.000  0.007
    2  0.007  0.001  0.000  0.007
    3  0.007  0.001  0.000  0.007
    4  0.007  0.001  0.000  0.007
    5  0.007  0.001  0.000  0.007
    6  0.007  0.001  0.000  0.007
    7  0.007  0.001  0.000  0.007
    8  0.007  0.001  0.000  0.007
    9  0.007  0.001  0.000  0.007
   10  0.027  0.000  0.000  0.027
   11  0.028  0.000  0.000  0.028
   12  0.027  0.000  0.000  0.027
   13  0.028  0.000  0.000  0.028
   14  0.028  0.000  0.000  0.028
   15  0.027  0.000  0.000  0.028
   16  0.027  0.000  0.000  0.027
   17  0.027  0.000  0.000  0.028
   18  0.027  0.000  0.000  0.028
   19  0.024  0.000  0.000  0.024
   20  0.025  0.000  0.000  0.025
   21  0.025  0.000  0.000  0.025
   22  0.024  0.000  0.000  0.025
   23  0.025  0.000  0.000  0.025
   24  0.024  0.000  0.000  0.025
   25  0.024  0.000  0.000  0.024
   26  0.024  0.000  0.000  0.024
   27  0.024  0.000  0.000  0.025
   28  0.005  0.000  0.000  0.005
   29  0.004  0.000  0.000  0.005
   30  0.004  0.000  0.000  0.005
   31  0.004  0.000  0.000  0.005
   32  0.004  0.000  0.000  0.005
   33  0.004  0.000  0.000  0.005
   34  0.004  0.000  0.000  0.005
   35  0.005  0.000  0.000  0.005
   36  0.005  0.001  0.000  0.006
   37  0.000  0.000  0.000  0.000
tot    0.567  0.012  0.004  0.582
 
band     2 # energy   -6.96182872 # occ.  2.00000000
 
ion      s      p      d    tot
    1  0.017  0.000  0.001  0.019
    2  0.017  0.000  0.001  0.018
    3  0.017  0.000  0.001  0.018
    4  0.017  0.000  0.001  0.018
    5  0.017  0.000  0.001  0.018
    6  0.017  0.000  0.001  0.018
    7  0.017  0.000  0.001  0.018
    8  0.017  0.000  0.001  0.018
    9  0.017  0.000  0.001  0.018
   10  0.010  0.002  0.002  0.014
   11  0.009  0.002  0.003  0.014
   12  0.010  0.002  0.002  0.014
   13  0.009  0.002  0.003  0.014
   14  0.009  0.002  0.003  0.014
   15  0.009  0.002  0.003  0.013
   16  0.010  0.002  0.002  0.014
   17  0.009  0.002  0.003  0.013
   18  0.009  0.002  0.003  0.013
   19  0.016  0.001  0.004  0.020
   20  0.015  0.001  0.004  0.020
   21  0.015  0.001  0.004  0.020
   22  0.016  0.001  0.004  0.021
   23  0.015  0.001  0.004  0.020
   24  0.016  0.001  0.004  0.021
   25  0.016  0.001  0.004  0.020
   26  0.016  0.001  0.004  0.020
   27  0.016  0.001  0.004  0.021
   28  0.014  0.001  0.000  0.015
   29  0.013  0.001  0.000  0.014
   30  0.013  0.001  0.000  0.014
   31  0.013  0.001  0.000  0.014
   32  0.013  0.001  0.000  0.014
   33  0.013  0.001  0.000  0.014
   34  0.013  0.001  0.000  0.014
   35  0.014  0.001  0.000  0.015
   36  0.012  0.000  0.000  0.012
   37  0.001  0.000  0.000  0.001
tot    0.497  0.032  0.072  0.600
 
band     3 # energy   -6.03914554 # occ.  2.00000000
 
ion      s      p      d    tot
    1  0.013  0.000  0.022  0.036
    2  0.019  0.000  0.019  0.037
    3  0.019  0.000  0.019  0.037
    4  0.019  0.000  0.019  0.037
    5  0.013  0.000  0.018  0.031
    6  0.019  0.000  0.019  0.037
    7  0.019  0.000  0.019  0.037
    8  0.019  0.000  0.019  0.037
    9  0.033  0.000  0.014  0.047
   10  0.012  0.001  0.022  0.034
   11  0.015  0.001  0.019  0.036
   12  0.012  0.001  0.022  0.034
   13  0.015  0.001  0.019  0.036
   14  0.015  0.001  0.019  0.036
   15  0.000  0.001  0.026  0.027
   16  0.012  0.001  0.022  0.034
   17  0.000  0.001  0.026  0.027
   18  0.000  0.001  0.026  0.027
   19  0.000  0.001  0.004  0.005
   20  0.003  0.001  0.005  0.009
   21  0.003  0.001  0.005  0.009
   22  0.003  0.001  0.002  0.005
   23  0.003  0.001  0.005  0.009
   24  0.003  0.001  0.002  0.005
   25  0.000  0.001  0.004  0.005
   26  0.000  0.001  0.004  0.005
   27  0.003  0.001  0.002  0.005
   28  0.004  0.000  0.000  0.004
   29  0.002  0.000  0.001  0.003
   30  0.002  0.000  0.001  0.003
   31  0.002  0.000  0.001  0.003
   32  0.002  0.000  0.001  0.003
   33  0.002  0.000  0.001  0.003
   34  0.002  0.000  0.001  0.003
   35  0.004  0.000  0.000  0.005
   36  0.000  0.000  0.001  0.001
   37  0.000  0.000  0.000  0.000
tot    0.290  0.016  0.408  0.715
 
band     4 # energy   -6.01248110 # occ.  2.00000000
 
ion      s      p      d    tot
    1  0.020  0.001  0.000  0.021
    2  0.002  0.001  0.007  0.010
    3  0.002  0.001  0.007  0.010
    4  0.002  0.001  0.007  0.010
    5  0.003  0.000  0.004  0.007
    6  0.002  0.001  0.007  0.010
    7  0.002  0.001  0.007  0.010
    8  0.002  0.001  0.007  0.010
    9  0.003  0.002  0.005  0.010
   10  0.008  0.000  0.031  0.039
   11  0.000  0.002  0.019  0.021
   12  0.008  0.000  0.031  0.039
   13  0.000  0.002  0.019  0.021
   14  0.000  0.002  0.019  0.021
   15  0.035  0.003  0.003  0.041
   16  0.008  0.000  0.031  0.039
   17  0.035  0.003  0.003  0.041
   18  0.036  0.003  0.003  0.041
   19  0.003  0.002  0.017  0.022
   20  0.017  0.000  0.022  0.039
   21  0.017  0.000  0.022  0.039
   22  0.018  0.003  0.008  0.028
   23  0.017  0.000  0.022  0.039
   24  0.018  0.003  0.008  0.028
   25  0.003  0.002  0.017  0.022
   26  0.003  0.002  0.017  0.022
   27  0.018  0.003  0.008  0.028
   28  0.000  0.000  0.000  0.000
   29  0.000  0.000  0.004  0.004
   30  0.000  0.000  0.004  0.004
   31  0.000  0.000  0.004  0.004
   32  0.000  0.000  0.004  0.004
   33  0.000  0.000  0.004  0.004
   34  0.000  0.000  0.004  0.004
   35  0.008  0.001  0.000  0.009
   36  0.006  0.002  0.005  0.012
   37  0.001  0.000  0.000  0.001
tot    0.296  0.037  0.376  0.709
 
band     5 # energy   -6.00243921 # occ.  2.00000000
 
ion      s      p      d    tot
    1  0.000  0.000  0.008  0.008
    2  0.005  0.001  0.004  0.010
    3  0.007  0.001  0.003  0.011
    4  0.005  0.001  0.004  0.010
    5  0.000  0.001  0.008  0.010
    6  0.000  0.000  0.003  0.004
    7  0.007  0.001  0.003  0.011
    8  0.000  0.000  0.003  0.004
    9  0.000  0.000  0.001  0.002
   10  0.000  0.000  0.038  0.039
   11  0.044  0.002  0.015  0.061
   12  0.024  0.002  0.013  0.038
   13  0.044  0.001  0.015  0.061
   14  0.000  0.003  0.029  0.032
   15  0.003  0.001  0.012  0.016
   16  0.023  0.002  0.013  0.038
   17  0.003  0.001  0.012  0.016
   18  0.000  0.004  0.003  0.007
   19  0.004  0.001  0.011  0.016
   20  0.000  0.002  0.030  0.032
   21  0.041  0.002  0.014  0.057
   22  0.016  0.001  0.010  0.028
   23  0.041  0.002  0.014  0.057
   24  0.000  0.000  0.030  0.030
   25  0.000  0.004  0.003  0.007
   26  0.005  0.001  0.011  0.016
   27  0.016  0.001  0.011  0.028
   28  0.000  0.000  0.001  0.001
   29  0.000  0.000  0.002  0.002
   30  0.004  0.001  0.002  0.008
   31  0.000  0.000  0.002  0.002
   32  0.004  0.001  0.003  0.008
   33  0.004  0.001  0.002  0.007
   34  0.004  0.001  0.003  0.008
   35  0.000  0.000  0.005  0.005
   36  0.000  0.002  0.005  0.007
   37  0.000  0.000  0.000  0.000
tot    0.306  0.043  0.347  0.696
 
band     6 # energy   -6.00240875 # occ.  2.00000000
 
ion      s      p      d    tot
    1  0.000  0.000  0.008  0.008
    2  0.003  0.001  0.003  0.006
    3  0.001  0.001  0.004  0.005
    4  0.003  0.001  0.003  0.006
    5  0.000  0.001  0.008  0.010
    6  0.008  0.001  0.004  0.013
    7  0.001  0.000  0.004  0.005
    8  0.008  0.001  0.004  0.013
    9  0.000  0.000  0.001  0.002
   10  0.031  0.002  0.004  0.038
   11  0.015  0.003  0.024  0.042
   12  0.008  0.001  0.030  0.038
   13  0.015  0.003  0.025  0.042
   14  0.059  0.001  0.010  0.070
   15  0.001  0.003  0.006  0.010
   16  0.008  0.001  0.030  0.038
   17  0.001  0.003  0.006  0.010
   18  0.004  0.000  0.015  0.019
   19  0.002  0.003  0.006  0.010
   20  0.055  0.001  0.009  0.065
   21  0.013  0.002  0.024  0.040
   22  0.005  0.001  0.023  0.029
   23  0.014  0.002  0.024  0.040
   24  0.022  0.002  0.004  0.028
   25  0.006  0.000  0.013  0.019
   26  0.001  0.003  0.006  0.010
   27  0.006  0.001  0.023  0.029
   28  0.000  0.000  0.001  0.001
   29  0.005  0.001  0.003  0.009
   30  0.001  0.000  0.003  0.004
   31  0.005  0.001  0.003  0.009
   32  0.002  0.000  0.002  0.004
   33  0.001  0.000  0.003  0.004
   34  0.002  0.000  0.002  0.004
   35  0.000  0.000  0.005  0.005
   36  0.000  0.002  0.005  0.007
   37  0.000  0.000  0.000  0.000
tot    0.306  0.043  0.347  0.696
 
band     7 # energy   -5.98613119 # occ.  2.00000000
 
ion      s      p      d    tot
    1  0.004  0.001  0.001  0.005
    2  0.000  0.001  0.006  0.007
    3  0.000  0.001  0.006  0.007
    4  0.000  0.001  0.006  0.007
    5  0.021  0.002  0.000  0.023
    6  0.000  0.001  0.006  0.008
    7  0.000  0.001  0.006  0.007
    8  0.000  0.001  0.006  0.008
    9  0.001  0.000  0.003  0.004
   10  0.020  0.003  0.004  0.027
   11  0.024  0.001  0.018  0.044
   12  0.020  0.003  0.004  0.027
   13  0.024  0.001  0.018  0.044
   14  0.024  0.001  0.018  0.044
   15  0.004  0.000  0.028  0.033
   16  0.020  0.003  0.004  0.027
   17  0.004  0.000  0.028  0.033
   18  0.004  0.000  0.028  0.033
   19  0.021  0.002  0.011  0.034
   20  0.012  0.003  0.009  0.024
   21  0.012  0.003  0.009  0.025
   22  0.004  0.000  0.026  0.030
   23  0.012  0.003  0.009  0.025
   24  0.004  0.000  0.026  0.030
   25  0.021  0.002  0.011  0.034
   26  0.021  0.002  0.011  0.034
   27  0.004  0.000  0.026  0.030
   28  0.012  0.001  0.001  0.013
   29  0.000  0.000  0.004  0.004
   30  0.000  0.000  0.004  0.004
   31  0.000  0.000  0.004  0.004
   32  0.000  0.000  0.004  0.004
   33  0.000  0.000  0.004  0.004
   34  0.000  0.000  0.004  0.004
   35  0.002  0.000  0.002  0.005
   36  0.001  0.000  0.000  0.002
   37  0.000  0.000  0.000  0.000
tot    0.298  0.040  0.360  0.698
 
band     8 # energy   -5.97755871 # occ.  2.00000000
 
ion      s      p      d    tot
    1  0.000  0.001  0.004  0.005
    2  0.005  0.001  0.004  0.011
    3  0.007  0.001  0.004  0.012
    4  0.005  0.001  0.004  0.011
    5  0.000  0.000  0.004  0.004
    6  0.000  0.000  0.003  0.004
    7  0.007  0.001  0.004  0.012
    8  0.000  0.000  0.003  0.004
    9  0.000  0.001  0.011  0.012
   10  0.033  0.000  0.016  0.049
   11  0.001  0.002  0.017  0.020
   12  0.008  0.004  0.009  0.021
   13  0.001  0.002  0.017  0.020
   14  0.004  0.001  0.009  0.015
   15  0.016  0.001  0.035  0.052
   16  0.009  0.003  0.009  0.021
   17  0.015  0.001  0.036  0.051
   18  0.060  0.002  0.004  0.066
   19  0.012  0.001  0.028  0.041
   20  0.002  0.001  0.010  0.013
   21  0.000  0.002  0.012  0.014
   22  0.007  0.003  0.013  0.023
   23  0.000  0.001  0.012  0.014
   24  0.031  0.000  0.013  0.044
   25  0.045  0.002  0.003  0.050
   26  0.011  0.001  0.029  0.040
   27  0.008  0.003  0.013  0.024
   28  0.000  0.001  0.006  0.007
   29  0.000  0.000  0.002  0.002
   30  0.003  0.001  0.002  0.006
   31  0.000  0.000  0.002  0.002
   32  0.004  0.001  0.003  0.007
   33  0.003  0.001  0.002  0.005
   34  0.004  0.001  0.003  0.007
   35  0.000  0.001  0.003  0.004
   36  0.000  0.000  0.001  0.001
   37  0.000  0.000  0.000  0.000
tot    0.301  0.042  0.351  0.693
 
band     9 # energy   -5.97752791 # occ.  2.00000000
 
ion      s      p      d    tot
    1  0.000  0.001  0.004  0.005
    2  0.003  0.001  0.003  0.007
    3  0.001  0.001  0.004  0.006
    4  0.003  0.001  0.003  0.007
    5  0.000  0.000  0.004  0.004
    6  0.008  0.001  0.004  0.014
    7  0.001  0.001  0.004  0.005
    8  0.008  0.001  0.004  0.014
    9  0.000  0.001  0.011  0.012
   10  0.000  0.005  0.007  0.012
   11  0.003  0.001  0.012  0.016
   12  0.025  0.001  0.014  0.040
   13  0.003  0.001  0.012  0.016
   14  0.000  0.002  0.020  0.022
   15  0.045  0.001  0.015  0.061
   16  0.024  0.001  0.014  0.039
   17  0.046  0.002  0.014  0.062
   18  0.000  0.001  0.046  0.046
   19  0.033  0.002  0.012  0.047
   20  0.000  0.002  0.013  0.014
   21  0.001  0.001  0.011  0.014
   22  0.023  0.001  0.013  0.037
   23  0.001  0.001  0.011  0.014
   24  0.000  0.004  0.012  0.017
   25  0.000  0.000  0.037  0.037
   26  0.034  0.002  0.011  0.047
   27  0.023  0.001  0.013  0.037
   28  0.000  0.001  0.006  0.007
   29  0.004  0.001  0.002  0.008
   30  0.001  0.000  0.002  0.004
   31  0.004  0.001  0.002  0.008
   32  0.001  0.000  0.002  0.003
   33  0.001  0.000  0.002  0.004
   34  0.001  0.000  0.002  0.003
   35  0.000  0.001  0.003  0.004
   36  0.000  0.000  0.001  0.001
   37  0.000  0.000  0.000  0.000
tot    0.301  0.042  0.351  0.693
 
band    10 # energy   -5.85734733 # occ.  2.00000000
 
ion      s      p      d    tot
    1  0.001  0.000  0.000  0.001
    2  0.000  0.000  0.001  0.001
    3  0.000  0.000  0.001  0.001
    4  0.000  0.000  0.001  0.001
    5  0.002  0.000  0.000  0.002
    6  0.000  0.000  0.001  0.001
    7  0.000  0.000  0.001  0.001
    8  0.000  0.000  0.001  0.001
    9  0.000  0.000  0.000  0.001
   10  0.000  0.000  0.004  0.004
   11  0.001  0.000  0.002  0.004
   12  0.000  0.000  0.004  0.004
   13  0.001  0.000  0.002  0.004
   14  0.001  0.000  0.002  0.004
   15  0.002  0.000  0.004  0.006
   16  0.000  0.000  0.004  0.004
   17  0.002  0.000  0.004  0.006
   18  0.002  0.000  0.004  0.006
   19  0.005  0.001  0.020  0.027
   20  0.003  0.000  0.026  0.029
   21  0.003  0.000  0.026  0.029
   22  0.008  0.001  0.025  0.035
   23  0.003  0.000  0.026  0.029
   24  0.008  0.001  0.025  0.035
   25  0.005  0.001  0.020  0.027
   26  0.005  0.001  0.020  0.027
   27  0.008  0.001  0.025  0.035
   28  0.027  0.000  0.023  0.050
   29  0.025  0.000  0.020  0.046
   30  0.025  0.000  0.020  0.046
   31  0.025  0.000  0.020  0.046
   32  0.025  0.000  0.020  0.046
   33  0.025  0.000  0.020  0.046
   34  0.025  0.000  0.020  0.046
   35  0.029  0.000  0.022  0.051
   36  0.014  0.000  0.007  0.022
   37  0.000  0.000  0.000  0.000
tot    0.285  0.013  0.424  0.722
 
band    11 # energy   -5.52553350 # occ.  2.00000000
 
ion      s      p      d    tot
    1  0.013  0.002  0.002  0.017
    2  0.000  0.001  0.009  0.009
    3  0.000  0.001  0.009  0.009
    4  0.000  0.001  0.009  0.009
    5  0.001  0.000  0.002  0.002
    6  0.000  0.001  0.009  0.009
    7  0.000  0.001  0.009  0.009
    8  0.000  0.001  0.009  0.009
    9  0.018  0.002  0.000  0.020
   10  0.010  0.001  0.014  0.025
   11  0.002  0.000  0.044  0.046
   12  0.010  0.001  0.014  0.025
   13  0.002  0.000  0.044  0.046
   14  0.002  0.000  0.044  0.046
   15  0.003  0.001  0.023  0.028
   16  0.010  0.001  0.014  0.025
   17  0.003  0.001  0.023  0.028
   18  0.003  0.001  0.023  0.028
   19  0.004  0.001  0.014  0.019
   20  0.002  0.000  0.047  0.049
   21  0.002  0.000  0.047  0.049
   22  0.012  0.001  0.017  0.031
   23  0.002  0.000  0.047  0.049
   24  0.012  0.001  0.017  0.031
   25  0.004  0.001  0.015  0.019
   26  0.004  0.001  0.014  0.019
   27  0.012  0.001  0.017  0.031
   28  0.010  0.001  0.000  0.012
   29  0.000  0.001  0.005  0.006
   30  0.000  0.001  0.005  0.006
   31  0.000  0.001  0.005  0.006
   32  0.000  0.001  0.005  0.006
   33  0.000  0.001  0.005  0.006
   34  0.000  0.001  0.005  0.006
   35  0.010  0.001  0.003  0.014
   36  0.000  0.000  0.002  0.002
   37  0.000  0.000  0.000  0.000
tot    0.153  0.029  0.571  0.752
 
band    12 # energy   -5.50810575 # occ.  2.00000000
 
ion      s      p      d    tot
    1  0.000  0.001  0.004  0.004
    2  0.010  0.001  0.004  0.015
    3  0.001  0.000  0.005  0.006
    4  0.009  0.001  0.004  0.015
    5  0.000  0.001  0.012  0.013
    6  0.004  0.001  0.005  0.010
    7  0.001  0.000  0.005  0.006
    8  0.004  0.001  0.005  0.010
    9  0.000  0.000  0.009  0.010
   10  0.008  0.002  0.009  0.020
   11  0.005  0.000  0.043  0.048
   12  0.002  0.001  0.040  0.043
   13  0.004  0.000  0.043  0.048
   14  0.018  0.001  0.012  0.031
   15  0.000  0.001  0.014  0.016
   16  0.002  0.001  0.040  0.043
   17  0.000  0.001  0.014  0.016
   18  0.002  0.000  0.024  0.026
   19  0.002  0.001  0.015  0.018
   20  0.025  0.001  0.006  0.033
   21  0.006  0.000  0.052  0.059
   22  0.001  0.001  0.032  0.034
   23  0.006  0.000  0.052  0.058
   24  0.004  0.001  0.012  0.017
   25  0.010  0.000  0.022  0.032
   26  0.002  0.001  0.014  0.018
   27  0.001  0.001  0.031  0.034
   28  0.000  0.000  0.007  0.008
   29  0.007  0.001  0.004  0.012
   30  0.000  0.000  0.004  0.004
   31  0.007  0.001  0.004  0.012
   32  0.005  0.001  0.003  0.010
   33  0.000  0.000  0.004  0.004
   34  0.005  0.001  0.003  0.010
   35  0.000  0.000  0.003  0.003
   36  0.000  0.003  0.004  0.007
   37  0.000  0.000  0.000  0.000
tot    0.154  0.031  0.567  0.752
 
band    13 # energy   -5.50810063 # occ.  2.00000000
 
ion      s      p      d    tot
    1  0.000  0.001  0.004  0.004
    2  0.000  0.000  0.005  0.006
    3  0.008  0.001  0.005  0.015
    4  0.000  0.000  0.005  0.006
    5  0.000  0.001  0.012  0.013
    6  0.006  0.001  0.004  0.011
    7  0.008  0.001  0.005  0.014
    8  0.006  0.001  0.004  0.011
    9  0.000  0.000  0.009  0.010
   10  0.000  0.001  0.050  0.051
   11  0.013  0.001  0.022  0.037
   12  0.006  0.002  0.019  0.027
   13  0.014  0.001  0.022  0.037
   14  0.000  0.000  0.053  0.053
   15  0.001  0.000  0.021  0.022
   16  0.006  0.002  0.020  0.028
   17  0.001  0.000  0.021  0.023
   18  0.000  0.001  0.011  0.012
   19  0.007  0.000  0.020  0.027
   20  0.000  0.000  0.067  0.067
   21  0.019  0.001  0.021  0.041
   22  0.003  0.001  0.019  0.023
   23  0.019  0.001  0.022  0.041
   24  0.000  0.001  0.038  0.039
   25  0.000  0.001  0.012  0.013
   26  0.007  0.000  0.020  0.028
   27  0.003  0.001  0.019  0.023
   28  0.000  0.000  0.007  0.008
   29  0.001  0.000  0.004  0.005
   30  0.008  0.001  0.004  0.013
   31  0.001  0.000  0.004  0.005
   32  0.003  0.001  0.004  0.008
   33  0.008  0.001  0.004  0.013
   34  0.003  0.001  0.004  0.008
   35  0.000  0.000  0.003  0.003
   36  0.000  0.003  0.004  0.007
   37  0.000  0.000  0.000  0.000
tot    0.154  0.031  0.567  0.752
 
band    14 # energy   -5.48738836 # occ.  2.00000000
 
ion      s      p      d    tot
    1  0.000  0.001  0.015  0.015
    2  0.010  0.001  0.005  0.016
    3  0.002  0.000  0.005  0.007
    4  0.010  0.001  0.005  0.016
    5  0.000  0.000  0.005  0.005
    6  0.003  0.001  0.006  0.010
    7  0.002  0.000  0.005  0.007
    8  0.003  0.001  0.006  0.010
    9  0.000  0.001  0.007  0.009
   10  0.000  0.001  0.029  0.029
   11  0.001  0.001  0.020  0.022
   12  0.007  0.000  0.023  0.030
   13  0.001  0.001  0.020  0.022
   14  0.000  0.001  0.021  0.022
   15  0.011  0.002  0.021  0.034
   16  0.007  0.000  0.023  0.030
   17  0.011  0.002  0.021  0.034
   18  0.000  0.000  0.065  0.065
   19  0.013  0.001  0.020  0.034
   20  0.000  0.002  0.016  0.018
   21  0.000  0.001  0.021  0.022
   22  0.018  0.001  0.021  0.040
   23  0.000  0.001  0.021  0.022
   24  0.000  0.000  0.035  0.036
   25  0.000  0.000  0.066  0.066
   26  0.013  0.001  0.020  0.034
   27  0.018  0.001  0.021  0.040
   28  0.000  0.001  0.005  0.005
   29  0.006  0.001  0.004  0.011
   30  0.000  0.000  0.004  0.005
   31  0.006  0.001  0.004  0.010
   32  0.004  0.001  0.002  0.007
   33  0.000  0.000  0.004  0.005
   34  0.004  0.001  0.002  0.007
   35  0.000  0.001  0.008  0.009
   36  0.000  0.000  0.001  0.002
   37  0.000  0.000  0.000  0.000
tot    0.150  0.029  0.573  0.751
 
band    15 # energy   -5.48737482 # occ.  2.00000000
 
ion      s      p      d    tot
    1  0.000  0.001  0.015  0.015
    2  0.000  0.000  0.005  0.006
    3  0.008  0.001  0.005  0.015
    4  0.000  0.000  0.006  0.006
    5  0.000  0.000  0.005  0.005
    6  0.007  0.001  0.005  0.012
    7  0.008  0.001  0.005  0.015
    8  0.007  0.001  0.005  0.012
    9  0.000  0.001  0.007  0.009
   10  0.009  0.000  0.021  0.030
   11  0.000  0.001  0.020  0.022
   12  0.002  0.001  0.027  0.029
   13  0.000  0.001  0.020  0.022
   14  0.001  0.001  0.019  0.021
   15  0.004  0.001  0.050  0.054
   16  0.002  0.001  0.027  0.029
   17  0.004  0.001  0.050  0.055
   18  0.015  0.002  0.006  0.024
   19  0.004  0.001  0.050  0.055
   20  0.000  0.000  0.022  0.023
   21  0.000  0.001  0.018  0.019
   22  0.006  0.001  0.031  0.037
   23  0.000  0.001  0.018  0.019
   24  0.024  0.001  0.016  0.041
   25  0.018  0.001  0.004  0.023
   26  0.004  0.001  0.051  0.056
   27  0.006  0.001  0.031  0.037
   28  0.000  0.001  0.005  0.005
   29  0.001  0.000  0.003  0.004
   30  0.006  0.001  0.003  0.010
   31  0.001  0.000  0.003  0.004
   32  0.003  0.001  0.004  0.008
   33  0.006  0.001  0.003  0.010
   34  0.003  0.001  0.004  0.008
   35  0.000  0.001  0.008  0.009
   36  0.000  0.000  0.001  0.002
   37  0.000  0.000  0.000  0.000
tot    0.150  0.029  0.573  0.751
 
band    16 # energy   -5.48134395 # occ.  2.00000000
 
ion      s      p      d    tot
    1  0.010  0.000  0.001  0.011
    2  0.000  0.001  0.009  0.010
    3  0.000  0.001  0.009  0.010
    4  0.000  0.001  0.009  0.010
    5  0.017  0.002  0.001  0.019
    6  0.000  0.001  0.009  0.010
    7  0.000  0.001  0.009  0.010
    8  0.000  0.001  0.009  0.010
    9  0.001  0.000  0.002  0.004
   10  0.000  0.000  0.043  0.043
   11  0.006  0.002  0.010  0.018
   12  0.000  0.000  0.043  0.043
   13  0.006  0.002  0.010  0.018
   14  0.006  0.002  0.010  0.018
   15  0.005  0.001  0.028  0.034
   16  0.000  0.000  0.043  0.043
   17  0.005  0.001  0.028  0.034
   18  0.005  0.001  0.028  0.034
   19  0.011  0.001  0.043  0.054
   20  0.010  0.001  0.007  0.019
   21  0.010  0.001  0.007  0.019
   22  0.000  0.000  0.038  0.038
   23  0.010  0.001  0.007  0.019
   24  0.000  0.000  0.038  0.039
   25  0.010  0.001  0.043  0.054
   26  0.011  0.001  0.043  0.054
   27  0.000  0.000  0.038  0.038
   28  0.001  0.001  0.006  0.008
   29  0.000  0.000  0.004  0.005
   30  0.000  0.000  0.004  0.005
   31  0.000  0.000  0.004  0.005
   32  0.000  0.000  0.004  0.005
   33  0.000  0.000  0.004  0.005
   34  0.000  0.000  0.004  0.005
   35  0.001  0.000  0.000  0.001
   36  0.015  0.002  0.003  0.019
   37  0.001  0.000  0.000  0.001
tot    0.147  0.027  0.595  0.768
 
band    17 # energy   -5.12849305 # occ.  2.00000000
 
ion      s      p      d    tot
    1  0.000  0.000  0.021  0.021
    2  0.011  0.001  0.014  0.026
    3  0.005  0.001  0.010  0.016
    4  0.011  0.001  0.014  0.026
    5  0.000  0.000  0.032  0.032
    6  0.001  0.000  0.017  0.018
    7  0.005  0.001  0.010  0.016
    8  0.001  0.000  0.017  0.018
    9  0.000  0.002  0.007  0.008
   10  0.000  0.000  0.007  0.007
   11  0.000  0.001  0.045  0.045
   12  0.000  0.000  0.017  0.017
   13  0.000  0.001  0.045  0.045
   14  0.000  0.000  0.052  0.052
   15  0.000  0.000  0.045  0.045
   16  0.000  0.000  0.017  0.017
   17  0.000  0.000  0.045  0.045
   18  0.000  0.000  0.035  0.035
   19  0.001  0.000  0.010  0.011
   20  0.000  0.000  0.021  0.021
   21  0.001  0.000  0.038  0.039
   22  0.000  0.000  0.034  0.034
   23  0.001  0.000  0.038  0.039
   24  0.000  0.000  0.030  0.030
   25  0.000  0.000  0.010  0.010
   26  0.001  0.000  0.010  0.011
   27  0.000  0.000  0.034  0.034
   28  0.000  0.000  0.011  0.011
   29  0.002  0.001  0.005  0.008
   30  0.008  0.001  0.009  0.017
   31  0.002  0.001  0.005  0.008
   32  0.002  0.000  0.009  0.011
   33  0.008  0.001  0.009  0.017
   34  0.002  0.000  0.009  0.011
   35  0.000  0.000  0.017  0.017
   36  0.000  0.002  0.003  0.005
   37  0.000  0.000  0.000  0.000
tot    0.064  0.016  0.747  0.827
 
band    18 # energy   -5.12848959 # occ.  2.00000000
 
ion      s      p      d    tot
    1  0.000  0.000  0.021  0.021
    2  0.000  0.001  0.013  0.014
    3  0.007  0.000  0.017  0.024
    4  0.000  0.001  0.013  0.014
    5  0.000  0.000  0.032  0.032
    6  0.010  0.001  0.010  0.021
    7  0.007  0.000  0.017  0.024
    8  0.010  0.001  0.010  0.022
    9  0.000  0.002  0.007  0.008
   10  0.000  0.000  0.020  0.021
   11  0.000  0.000  0.050  0.050
   12  0.000  0.000  0.010  0.011
   13  0.000  0.000  0.050  0.050
   14  0.000  0.001  0.042  0.042
   15  0.000  0.000  0.038  0.038
   16  0.000  0.000  0.010  0.011
   17  0.000  0.000  0.038  0.038
   18  0.000  0.000  0.049  0.049
   19  0.000  0.000  0.010  0.010
   20  0.002  0.000  0.043  0.045
   21  0.000  0.000  0.027  0.027
   22  0.000  0.000  0.032  0.032
   23  0.000  0.000  0.027  0.027
   24  0.000  0.000  0.035  0.035
   25  0.001  0.000  0.010  0.011
   26  0.000  0.000  0.010  0.010
   27  0.000  0.000  0.032  0.032
   28  0.000  0.000  0.011  0.011
   29  0.006  0.000  0.010  0.016
   30  0.000  0.000  0.007  0.007
   31  0.006  0.000  0.010  0.016
   32  0.006  0.001  0.006  0.013
   33  0.000  0.000  0.007  0.007
   34  0.006  0.001  0.006  0.013
   35  0.000  0.000  0.017  0.017
   36  0.000  0.002  0.003  0.005
   37  0.000  0.000  0.000  0.000
tot    0.064  0.016  0.747  0.827
 
band    19 # energy   -5.12636217 # occ.  2.00000000
 
ion      s      p      d    tot
    1  0.018  0.001  0.001  0.020
    2  0.000  0.001  0.016  0.017
    3  0.000  0.001  0.016  0.017
    4  0.000  0.001  0.016  0.017
    5  0.009  0.000  0.015  0.024
    6  0.000  0.001  0.016  0.017
    7  0.000  0.001  0.016  0.017
    8  0.000  0.001  0.016  0.017
    9  0.001  0.001  0.006  0.008
   10  0.000  0.000  0.027  0.027
   11  0.000  0.000  0.040  0.040
   12  0.000  0.000  0.027  0.027
   13  0.000  0.000  0.040  0.040
   14  0.000  0.000  0.041  0.041
   15  0.000  0.000  0.038  0.039
   16  0.000  0.000  0.027  0.027
   17  0.000  0.000  0.038  0.039
   18  0.000  0.000  0.038  0.038
   19  0.000  0.000  0.024  0.024
   20  0.001  0.000  0.025  0.026
   21  0.001  0.000  0.025  0.026
   22  0.001  0.000  0.029  0.031
   23  0.001  0.000  0.025  0.026
   24  0.001  0.000  0.030  0.031
   25  0.000  0.000  0.023  0.024
   26  0.000  0.000  0.024  0.024
   27  0.001  0.000  0.029  0.031
   28  0.013  0.001  0.001  0.014
   29  0.000  0.001  0.013  0.013
   30  0.000  0.001  0.013  0.013
   31  0.000  0.001  0.013  0.013
   32  0.000  0.001  0.013  0.013
   33  0.000  0.001  0.013  0.013
   34  0.000  0.001  0.013  0.013
   35  0.011  0.000  0.004  0.016
   36  0.000  0.000  0.004  0.005
   37  0.000  0.000  0.000  0.000
tot    0.059  0.014  0.754  0.827
 
band    20 # energy   -5.11007292 # occ.  2.00000000
 
ion      s      p      d    tot
    1  0.000  0.000  0.012  0.013
    2  0.000  0.001  0.018  0.019
    3  0.000  0.001  0.018  0.019
    4  0.000  0.001  0.018  0.019
    5  0.021  0.002  0.001  0.024
    6  0.000  0.001  0.018  0.019
    7  0.000  0.001  0.018  0.019
    8  0.000  0.001  0.018  0.019
    9  0.022  0.000  0.008  0.030
   10  0.000  0.000  0.050  0.051
   11  0.000  0.001  0.044  0.045
   12  0.000  0.000  0.050  0.050
   13  0.000  0.001  0.044  0.045
   14  0.000  0.001  0.043  0.044
   15  0.000  0.000  0.030  0.030
   16  0.000  0.000  0.050  0.050
   17  0.000  0.000  0.030  0.030
   18  0.000  0.000  0.030  0.030
   19  0.002  0.000  0.021  0.023
   20  0.001  0.000  0.032  0.033
   21  0.001  0.000  0.032  0.032
   22  0.000  0.000  0.015  0.016
   23  0.001  0.000  0.032  0.032
   24  0.000  0.000  0.015  0.016
   25  0.002  0.000  0.021  0.023
   26  0.002  0.000  0.021  0.023
   27  0.000  0.000  0.015  0.016
   28  0.001  0.000  0.003  0.005
   29  0.000  0.000  0.007  0.007
   30  0.000  0.000  0.007  0.007
   31  0.000  0.000  0.007  0.007
   32  0.000  0.000  0.007  0.007
   33  0.000  0.000  0.007  0.007
   34  0.000  0.000  0.007  0.007
   35  0.000  0.000  0.001  0.002
   36  0.005  0.000  0.003  0.008
   37  0.000  0.000  0.000  0.000
tot    0.058  0.017  0.754  0.830
 
band    21 # energy   -5.10089847 # occ.  2.00000000
 
ion      s      p      d    tot
    1  0.000  0.002  0.018  0.019
    2  0.013  0.001  0.016  0.030
    3  0.007  0.001  0.011  0.019
    4  0.013  0.001  0.016  0.030
    5  0.000  0.001  0.011  0.013
    6  0.001  0.001  0.019  0.020
    7  0.007  0.001  0.011  0.020
    8  0.001  0.001  0.019  0.020
    9  0.000  0.000  0.037  0.037
   10  0.000  0.001  0.057  0.058
   11  0.000  0.000  0.025  0.025
   12  0.000  0.000  0.063  0.063
   13  0.000  0.000  0.025  0.025
   14  0.000  0.000  0.037  0.037
   15  0.000  0.000  0.028  0.029
   16  0.000  0.000  0.063  0.063
   17  0.000  0.000  0.028  0.029
   18  0.000  0.001  0.025  0.027
   19  0.000  0.000  0.026  0.027
   20  0.000  0.000  0.021  0.022
   21  0.000  0.000  0.018  0.019
   22  0.001  0.000  0.010  0.010
   23  0.000  0.000  0.018  0.019
   24  0.004  0.000  0.018  0.022
   25  0.001  0.000  0.039  0.040
   26  0.000  0.000  0.026  0.027
   27  0.001  0.000  0.010  0.010
   28  0.000  0.001  0.010  0.011
   29  0.001  0.000  0.005  0.006
   30  0.004  0.000  0.004  0.008
   31  0.001  0.000  0.005  0.006
   32  0.001  0.000  0.007  0.009
   33  0.004  0.000  0.004  0.008
   34  0.001  0.000  0.007  0.009
   35  0.000  0.001  0.005  0.006
   36  0.000  0.000  0.004  0.004