PROCAR new format
# of k-points:   10         # of bands:  252         # of ions:   37

 k-point     1 :    0.00000000 0.00000000 0.00000000     weight = 0.01562500

band     1 # energy   -8.20843982 # occ.  2.00000000
 
ion      s      p      d    tot
    1  0.007  0.001  0.000  0.007
    2  0.007  0.001  0.000  0.007
    3  0.007  0.001  0.000  0.007
    4  0.007  0.001  0.000  0.007
    5  0.007  0.001  0.000  0.007
    6  0.007  0.001  0.000  0.007
    7  0.007  0.001  0.000  0.007
    8  0.007  0.001  0.000  0.007
    9  0.006  0.001  0.000  0.007
   10  0.026  0.000  0.000  0.027
   11  0.027  0.000  0.000  0.028
   12  0.026  0.000  0.000  0.027
   13  0.027  0.000  0.000  0.028
   14  0.027  0.000  0.000  0.028
   15  0.026  0.000  0.000  0.026
   16  0.026  0.000  0.000  0.027
   17  0.026  0.000  0.000  0.026
   18  0.026  0.000  0.000  0.026
   19  0.023  0.000  0.000  0.024
   20  0.027  0.000  0.000  0.027
   21  0.027  0.000  0.000  0.027
   22  0.024  0.000  0.000  0.025
   23  0.027  0.000  0.000  0.027
   24  0.024  0.000  0.000  0.025
   25  0.023  0.000  0.000  0.024
   26  0.023  0.000  0.000  0.024
   27  0.024  0.000  0.000  0.025
   28  0.005  0.000  0.000  0.005
   29  0.005  0.000  0.000  0.005
   30  0.005  0.000  0.000  0.005
   31  0.005  0.000  0.000  0.005
   32  0.005  0.000  0.000  0.005
   33  0.005  0.000  0.000  0.005
   34  0.005  0.000  0.000  0.005
   35  0.005  0.000  0.000  0.005
   36  0.006  0.001  0.000  0.007
   37  0.000  0.000  0.000  0.000
tot    0.566  0.012  0.004  0.581
 
band     2 # energy   -7.03271629 # occ.  2.00000000
 
ion      s      p      d    tot
    1  0.017  0.000  0.001  0.018
    2  0.017  0.000  0.001  0.018
    3  0.017  0.000  0.001  0.018
    4  0.017  0.000  0.001  0.018
    5  0.017  0.000  0.001  0.018
    6  0.017  0.000  0.001  0.018
    7  0.017  0.000  0.001  0.018
    8  0.017  0.000  0.001  0.018
    9  0.017  0.000  0.001  0.018
   10  0.011  0.001  0.003  0.015
   11  0.010  0.002  0.003  0.014
   12  0.011  0.001  0.003  0.015
   13  0.010  0.002  0.003  0.014
   14  0.010  0.002  0.003  0.014
   15  0.010  0.001  0.002  0.014
   16  0.011  0.001  0.003  0.015
   17  0.010  0.001  0.002  0.014
   18  0.010  0.001  0.002  0.014
   19  0.013  0.001  0.004  0.018
   20  0.016  0.001  0.004  0.021
   21  0.016  0.001  0.004  0.021
   22  0.014  0.001  0.003  0.018
   23  0.016  0.001  0.004  0.021
   24  0.014  0.001  0.003  0.018
   25  0.013  0.001  0.004  0.018
   26  0.013  0.001  0.004  0.018
   27  0.014  0.001  0.003  0.018
   28  0.014  0.000  0.001  0.015
   29  0.014  0.001  0.001  0.015
   30  0.014  0.001  0.001  0.015
   31  0.014  0.001  0.001  0.015
   32  0.014  0.001  0.001  0.015
   33  0.014  0.001  0.001  0.015
   34  0.014  0.001  0.001  0.015
   35  0.014  0.000  0.001  0.015
   36  0.014  0.001  0.000  0.014
   37  0.000  0.000  0.000  0.000
tot    0.498  0.032  0.071  0.600
 
band     3 # energy   -6.08633656 # occ.  2.00000000
 
ion      s      p      d    tot
    1  0.004  0.000  0.016  0.020
    2  0.012  0.000  0.012  0.024
    3  0.012  0.000  0.012  0.024
    4  0.012  0.000  0.012  0.024
    5  0.006  0.000  0.010  0.016
    6  0.012  0.000  0.012  0.024
    7  0.012  0.000  0.012  0.024
    8  0.012  0.000  0.012  0.024
    9  0.033  0.001  0.006  0.040
   10  0.013  0.001  0.017  0.031
   11  0.014  0.002  0.012  0.028
   12  0.013  0.001  0.017  0.031
   13  0.014  0.002  0.012  0.028
   14  0.014  0.002  0.012  0.028
   15  0.003  0.001  0.018  0.021
   16  0.013  0.001  0.017  0.031
   17  0.003  0.001  0.018  0.021
   18  0.003  0.001  0.018  0.021
   19  0.000  0.001  0.011  0.012
   20  0.014  0.002  0.010  0.026
   21  0.014  0.002  0.010  0.026
   22  0.007  0.001  0.002  0.010
   23  0.014  0.002  0.010  0.026
   24  0.007  0.001  0.002  0.010
   25  0.000  0.001  0.011  0.012
   26  0.000  0.001  0.011  0.012
   27  0.007  0.001  0.002  0.010
   28  0.008  0.000  0.001  0.009
   29  0.005  0.000  0.005  0.010
   30  0.005  0.000  0.005  0.010
   31  0.005  0.000  0.005  0.010
   32  0.005  0.000  0.005  0.010
   33  0.005  0.000  0.005  0.010
   34  0.005  0.000  0.005  0.010
   35  0.014  0.000  0.002  0.016
   36  0.000  0.002  0.003  0.005
   37  0.000  0.000  0.000  0.000
tot    0.316  0.029  0.351  0.696
 
band     4 # energy   -6.07247922 # occ.  2.00000000
 
ion      s      p      d    tot
    1  0.000  0.000  0.008  0.008
    2  0.004  0.001  0.004  0.008
    3  0.006  0.001  0.003  0.010
    4  0.004  0.001  0.004  0.008
    5  0.000  0.001  0.007  0.008
    6  0.000  0.000  0.003  0.003
    7  0.006  0.001  0.003  0.010
    8  0.000  0.000  0.003  0.003
    9  0.000  0.000  0.001  0.001
   10  0.000  0.000  0.035  0.035
   11  0.039  0.001  0.015  0.055
   12  0.025  0.002  0.012  0.039
   13  0.040  0.001  0.015  0.056
   14  0.000  0.003  0.025  0.029
   15  0.001  0.001  0.010  0.013
   16  0.025  0.002  0.012  0.039
   17  0.001  0.001  0.010  0.013
   18  0.000  0.003  0.004  0.007
   19  0.007  0.001  0.011  0.018
   20  0.000  0.002  0.037  0.039
   21  0.046  0.002  0.016  0.064
   22  0.014  0.001  0.011  0.026
   23  0.046  0.002  0.017  0.064
   24  0.000  0.000  0.028  0.029
   25  0.000  0.004  0.003  0.007
   26  0.007  0.001  0.011  0.018
   27  0.014  0.001  0.011  0.026
   28  0.000  0.000  0.001  0.001
   29  0.000  0.000  0.002  0.003
   30  0.005  0.001  0.003  0.009
   31  0.000  0.000  0.002  0.003
   32  0.005  0.001  0.004  0.009
   33  0.005  0.001  0.003  0.009
   34  0.005  0.001  0.004  0.009
   35  0.000  0.000  0.005  0.005
   36  0.000  0.003  0.004  0.007
   37  0.000  0.000  0.000  0.000
tot    0.306  0.044  0.343  0.693
 
band     5 # energy   -6.07245165 # occ.  2.00000000
 
ion      s      p      d    tot
    1  0.000  0.000  0.008  0.008
    2  0.003  0.001  0.003  0.006
    3  0.001  0.000  0.003  0.004
    4  0.003  0.001  0.003  0.006
    5  0.000  0.001  0.007  0.008
    6  0.007  0.001  0.003  0.011
    7  0.001  0.000  0.003  0.004
    8  0.007  0.001  0.003  0.011
    9  0.000  0.000  0.001  0.001
   10  0.033  0.002  0.004  0.040
   11  0.013  0.003  0.022  0.038
   12  0.008  0.001  0.028  0.036
   13  0.013  0.003  0.022  0.037
   14  0.053  0.001  0.011  0.065
   15  0.000  0.003  0.006  0.009
   16  0.009  0.001  0.027  0.036
   17  0.000  0.003  0.006  0.009
   18  0.002  0.000  0.013  0.015
   19  0.002  0.003  0.005  0.011
   20  0.061  0.001  0.010  0.072
   21  0.015  0.002  0.030  0.047
   22  0.005  0.001  0.023  0.028
   23  0.016  0.002  0.030  0.048
   24  0.019  0.002  0.005  0.025
   25  0.009  0.000  0.013  0.022
   26  0.002  0.003  0.005  0.011
   27  0.005  0.001  0.022  0.028
   28  0.000  0.000  0.001  0.001
   29  0.007  0.001  0.004  0.011
   30  0.001  0.001  0.003  0.005
   31  0.007  0.001  0.004  0.011
   32  0.002  0.000  0.002  0.004
   33  0.001  0.001  0.003  0.005
   34  0.002  0.000  0.002  0.004
   35  0.000  0.000  0.005  0.005
   36  0.000  0.003  0.004  0.007
   37  0.000  0.000  0.000  0.000
tot    0.306  0.044  0.344  0.693
 
band     6 # energy   -6.06745559 # occ.  2.00000000
 
ion      s      p      d    tot
    1  0.024  0.000  0.006  0.030
    2  0.010  0.000  0.013  0.023
    3  0.010  0.000  0.013  0.023
    4  0.010  0.000  0.013  0.023
    5  0.015  0.000  0.012  0.027
    6  0.010  0.000  0.013  0.023
    7  0.010  0.000  0.013  0.023
    8  0.010  0.000  0.013  0.023
    9  0.001  0.001  0.015  0.017
   10  0.000  0.000  0.032  0.033
   11  0.000  0.001  0.021  0.023
   12  0.000  0.000  0.032  0.032
   13  0.000  0.001  0.021  0.023
   14  0.000  0.001  0.021  0.023
   15  0.033  0.002  0.010  0.044
   16  0.000  0.000  0.032  0.032
   17  0.033  0.002  0.010  0.044
   18  0.033  0.002  0.010  0.044
   19  0.000  0.001  0.016  0.017
   20  0.015  0.000  0.015  0.031
   21  0.015  0.000  0.015  0.031
   22  0.007  0.002  0.006  0.015
   23  0.015  0.000  0.015  0.031
   24  0.007  0.002  0.006  0.015
   25  0.000  0.001  0.016  0.017
   26  0.000  0.001  0.016  0.017
   27  0.007  0.002  0.006  0.015
   28  0.000  0.000  0.000  0.000
   29  0.000  0.000  0.002  0.002
   30  0.000  0.000  0.002  0.002
   31  0.000  0.000  0.002  0.002
   32  0.000  0.000  0.002  0.002
   33  0.000  0.000  0.002  0.002
   34  0.000  0.000  0.002  0.002
   35  0.003  0.000  0.000  0.004
   36  0.005  0.002  0.002  0.009
   37  0.000  0.000  0.000  0.000
tot    0.277  0.024  0.424  0.724
 
band     7 # energy   -6.04384389 # occ.  2.00000000
 
ion      s      p      d    tot
    1  0.008  0.001  0.001  0.010
    2  0.000  0.001  0.006  0.007
    3  0.000  0.001  0.006  0.007
    4  0.000  0.001  0.006  0.007
    5  0.016  0.002  0.001  0.018
    6  0.000  0.001  0.006  0.007
    7  0.000  0.001  0.006  0.007
    8  0.000  0.001  0.006  0.007
    9  0.000  0.000  0.001  0.002
   10  0.024  0.003  0.002  0.029
   11  0.022  0.001  0.022  0.044
   12  0.024  0.003  0.002  0.029
   13  0.022  0.001  0.022  0.044
   14  0.022  0.001  0.021  0.044
   15  0.000  0.001  0.023  0.024
   16  0.024  0.003  0.002  0.029
   17  0.000  0.001  0.023  0.024
   18  0.000  0.001  0.023  0.024
   19  0.025  0.002  0.006  0.033
   20  0.006  0.002  0.019  0.027
   21  0.006  0.002  0.019  0.027
   22  0.009  0.000  0.026  0.035
   23  0.006  0.002  0.019  0.027
   24  0.009  0.000  0.026  0.035
   25  0.025  0.002  0.006  0.033
   26  0.025  0.002  0.006  0.033
   27  0.009  0.000  0.026  0.035
   28  0.013  0.001  0.000  0.014
   29  0.000  0.000  0.004  0.005
   30  0.000  0.000  0.004  0.005
   31  0.000  0.000  0.004  0.005
   32  0.000  0.000  0.004  0.005
   33  0.000  0.000  0.004  0.005
   34  0.000  0.000  0.004  0.005
   35  0.003  0.001  0.003  0.007
   36  0.000  0.000  0.000  0.000
   37  0.000  0.000  0.000  0.000
tot    0.298  0.040  0.357  0.695
 
band     8 # energy   -6.01190085 # occ.  2.00000000
 
ion      s      p      d    tot
    1  0.000  0.001  0.004  0.005
    2  0.005  0.001  0.004  0.010
    3  0.008  0.001  0.004  0.012
    4  0.005  0.001  0.004  0.010
    5  0.000  0.000  0.004  0.004
    6  0.000  0.000  0.003  0.004
    7  0.008  0.001  0.004  0.013
    8  0.000  0.000  0.003  0.004
    9  0.000  0.001  0.011  0.012
   10  0.028  0.000  0.017  0.045
   11  0.002  0.002  0.019  0.023
   12  0.007  0.004  0.008  0.018
   13  0.002  0.002  0.020  0.023
   14  0.007  0.001  0.008  0.016
   15  0.016  0.001  0.033  0.050
   16  0.007  0.004  0.008  0.019
   17  0.015  0.001  0.034  0.050
   18  0.062  0.002  0.005  0.068
   19  0.011  0.001  0.028  0.040
   20  0.001  0.001  0.013  0.014
   21  0.000  0.002  0.013  0.015
   22  0.008  0.003  0.014  0.025
   23  0.000  0.002  0.013  0.015
   24  0.033  0.001  0.012  0.046
   25  0.042  0.002  0.003  0.048
   26  0.010  0.001  0.029  0.040
   27  0.009  0.003  0.014  0.025
   28  0.000  0.000  0.007  0.007
   29  0.000  0.000  0.002  0.002
   30  0.003  0.001  0.002  0.005
   31  0.000  0.000  0.002  0.002
   32  0.004  0.001  0.003  0.007
   33  0.002  0.001  0.002  0.005
   34  0.004  0.001  0.003  0.007
   35  0.000  0.001  0.004  0.004
   36  0.000  0.000  0.000  0.000
   37  0.000  0.000  0.000  0.000
tot    0.298  0.041  0.354  0.693
 
band     9 # energy   -6.01187344 # occ.  2.00000000
 
ion      s      p      d    tot
    1  0.000  0.001  0.004  0.005
    2  0.004  0.001  0.003  0.008
    3  0.001  0.000  0.004  0.005
    4  0.004  0.001  0.003  0.008
    5  0.000  0.000  0.004  0.004
    6  0.008  0.001  0.004  0.014
    7  0.001  0.000  0.004  0.005
    8  0.008  0.001  0.004  0.014
    9  0.000  0.001  0.011  0.012
   10  0.000  0.005  0.005  0.010
   11  0.005  0.001  0.012  0.018
   12  0.021  0.001  0.014  0.036
   13  0.005  0.001  0.012  0.018
   14  0.000  0.002  0.023  0.025
   15  0.046  0.001  0.015  0.062
   16  0.021  0.001  0.014  0.036
   17  0.047  0.002  0.014  0.062
   18  0.000  0.001  0.043  0.044
   19  0.031  0.002  0.012  0.045
   20  0.000  0.002  0.013  0.015
   21  0.001  0.001  0.013  0.014
   22  0.025  0.001  0.013  0.039
   23  0.001  0.001  0.013  0.015
   24  0.000  0.004  0.014  0.018
   25  0.000  0.000  0.037  0.037
   26  0.032  0.002  0.011  0.045
   27  0.025  0.001  0.013  0.039
   28  0.000  0.000  0.007  0.007
   29  0.004  0.001  0.002  0.007
   30  0.002  0.000  0.002  0.005
   31  0.004  0.001  0.002  0.007
   32  0.000  0.000  0.002  0.002
   33  0.002  0.000  0.002  0.005
   34  0.001  0.000  0.002  0.002
   35  0.000  0.001  0.004  0.004
   36  0.000  0.000  0.000  0.000
   37  0.000  0.000  0.000  0.000
tot    0.298  0.041  0.354  0.693
 
band    10 # energy   -5.98603283 # occ.  2.00000000
 
ion      s      p      d    tot
    1  0.001  0.000  0.000  0.001
    2  0.000  0.000  0.001  0.001
    3  0.000  0.000  0.001  0.001
    4  0.000  0.000  0.001  0.001
    5  0.002  0.000  0.000  0.002
    6  0.000  0.000  0.001  0.001
    7  0.000  0.000  0.001  0.001
    8  0.000  0.000  0.001  0.001
    9  0.001  0.000  0.000  0.002
   10  0.001  0.000  0.007  0.008
   11  0.003  0.001  0.003  0.007
   12  0.001  0.000  0.007  0.008
   13  0.003  0.001  0.003  0.007
   14  0.003  0.001  0.003  0.007
   15  0.003  0.001  0.007  0.010
   16  0.001  0.000  0.007  0.008
   17  0.003  0.001  0.007  0.010
   18  0.003  0.001  0.007  0.010
   19  0.007  0.001  0.019  0.027
   20  0.001  0.000  0.033  0.035
   21  0.001  0.000  0.033  0.035
   22  0.012  0.001  0.021  0.035
   23  0.001  0.000  0.033  0.035
   24  0.012  0.001  0.021  0.035
   25  0.007  0.001  0.019  0.027
   26  0.007  0.001  0.019  0.027
   27  0.012  0.001  0.021  0.035
   28  0.019  0.000  0.021  0.040
   29  0.023  0.000  0.019  0.042
   30  0.023  0.000  0.019  0.042
   31  0.023  0.000  0.019  0.042
   32  0.023  0.000  0.019  0.042
   33  0.023  0.000  0.019  0.042
   34  0.023  0.000  0.019  0.042
   35  0.021  0.000  0.020  0.041
   36  0.019  0.000  0.004  0.023
   37  0.001  0.000  0.000  0.001
tot    0.280  0.012  0.437  0.729
 
band    11 # energy   -5.59405812 # occ.  2.00000000
 
ion      s      p      d    tot
    1  0.000  0.001  0.004  0.005
    2  0.000  0.001  0.005  0.006
    3  0.009  0.001  0.004  0.014
    4  0.000  0.001  0.005  0.006
    5  0.000  0.001  0.011  0.012
    6  0.005  0.001  0.004  0.010
    7  0.009  0.001  0.005  0.014
    8  0.005  0.001  0.004  0.010
    9  0.000  0.000  0.008  0.008
   10  0.000  0.001  0.052  0.053
   11  0.016  0.001  0.021  0.038
   12  0.008  0.002  0.018  0.028
   13  0.016  0.001  0.020  0.037
   14  0.000  0.000  0.047  0.047
   15  0.001  0.000  0.019  0.020
   16  0.008  0.001  0.019  0.029
   17  0.001  0.000  0.019  0.021
   18  0.000  0.001  0.011  0.012
   19  0.006  0.000  0.019  0.025
   20  0.000  0.000  0.080  0.080
   21  0.016  0.001  0.024  0.042
   22  0.002  0.001  0.019  0.022
   23  0.016  0.001  0.025  0.042
   24  0.000  0.001  0.030  0.031
   25  0.000  0.001  0.013  0.014
   26  0.006  0.000  0.019  0.025
   27  0.002  0.001  0.019  0.022
   28  0.000  0.000  0.009  0.009
   29  0.002  0.001  0.005  0.007
   30  0.010  0.001  0.004  0.015
   31  0.002  0.001  0.005  0.008
   32  0.003  0.001  0.004  0.007
   33  0.010  0.001  0.004  0.015
   34  0.002  0.001  0.004  0.007
   35  0.000  0.000  0.003  0.004
   36  0.000  0.004  0.003  0.007
   37  0.000  0.000  0.000  0.000
tot    0.156  0.032  0.562  0.750
 
band    12 # energy   -5.59405709 # occ.  2.00000000
 
ion      s      p      d    tot
    1  0.000  0.001  0.004  0.005
    2  0.009  0.001  0.004  0.014
    3  0.001  0.000  0.004  0.005
    4  0.009  0.001  0.004  0.014
    5  0.000  0.001  0.011  0.012
    6  0.004  0.001  0.005  0.010
    7  0.001  0.000  0.004  0.005
    8  0.004  0.001  0.005  0.010
    9  0.000  0.000  0.008  0.008
   10  0.011  0.002  0.008  0.020
   11  0.006  0.000  0.038  0.044
   12  0.003  0.001  0.041  0.045
   13  0.005  0.000  0.038  0.044
   14  0.021  0.001  0.012  0.034
   15  0.000  0.001  0.013  0.015
   16  0.003  0.001  0.041  0.045
   17  0.000  0.001  0.013  0.015
   18  0.002  0.000  0.022  0.024
   19  0.002  0.001  0.015  0.018
   20  0.021  0.002  0.006  0.029
   21  0.005  0.000  0.062  0.068
   22  0.001  0.001  0.026  0.028
   23  0.006  0.000  0.061  0.067
   24  0.003  0.001  0.015  0.019
   25  0.008  0.000  0.021  0.029
   26  0.002  0.001  0.015  0.017
   27  0.001  0.001  0.026  0.028
   28  0.000  0.000  0.009  0.009
   29  0.007  0.001  0.004  0.012
   30  0.000  0.000  0.004  0.005
   31  0.007  0.001  0.004  0.012
   32  0.007  0.001  0.004  0.012
   33  0.000  0.000  0.004  0.005
   34  0.007  0.001  0.004  0.013
   35  0.000  0.000  0.003  0.004
   36  0.000  0.004  0.003  0.007
   37  0.000  0.000  0.000  0.000
tot    0.156  0.032  0.562  0.750
 
band    13 # energy   -5.59269049 # occ.  2.00000000
 
ion      s      p      d    tot
    1  0.012  0.002  0.002  0.016
    2  0.000  0.001  0.008  0.009
    3  0.000  0.001  0.008  0.009
    4  0.000  0.001  0.008  0.009
    5  0.001  0.000  0.002  0.002
    6  0.000  0.001  0.008  0.009
    7  0.000  0.001  0.008  0.009
    8  0.000  0.001  0.008  0.009
    9  0.017  0.002  0.000  0.019
   10  0.011  0.001  0.016  0.028
   11  0.002  0.000  0.046  0.048
   12  0.011  0.001  0.016  0.028
   13  0.002  0.000  0.046  0.048
   14  0.002  0.000  0.045  0.047
   15  0.005  0.001  0.018  0.024
   16  0.011  0.001  0.016  0.028
   17  0.005  0.001  0.018  0.024
   18  0.005  0.001  0.017  0.023
   19  0.003  0.001  0.016  0.019
   20  0.002  0.000  0.055  0.057
   21  0.002  0.000  0.055  0.057
   22  0.011  0.001  0.015  0.027
   23  0.002  0.000  0.055  0.057
   24  0.011  0.001  0.015  0.027
   25  0.003  0.001  0.015  0.019
   26  0.003  0.001  0.016  0.019
   27  0.011  0.001  0.015  0.027
   28  0.011  0.001  0.000  0.012
   29  0.000  0.000  0.006  0.006
   30  0.000  0.000  0.006  0.006
   31  0.000  0.000  0.006  0.006
   32  0.000  0.000  0.006  0.006
   33  0.000  0.000  0.006  0.006
   34  0.000  0.000  0.006  0.006
   35  0.008  0.001  0.002  0.012
   36  0.000  0.000  0.001  0.001
   37  0.000  0.000  0.000  0.000
tot    0.146  0.027  0.584  0.757
 
band    14 # energy   -5.54155034 # occ.  2.00000000
 
ion      s      p      d    tot
    1  0.009  0.000  0.000  0.010
    2  0.000  0.001  0.009  0.009
    3  0.000  0.001  0.009  0.009
    4  0.000  0.001  0.009  0.009
    5  0.018  0.002  0.001  0.020
    6  0.000  0.001  0.009  0.009
    7  0.000  0.001  0.009  0.009
    8  0.000  0.001  0.009  0.009
    9  0.002  0.000  0.002  0.004
   10  0.000  0.000  0.041  0.041
   11  0.007  0.002  0.007  0.016
   12  0.000  0.000  0.041  0.042
   13  0.007  0.002  0.007  0.016
   14  0.007  0.002  0.007  0.016
   15  0.007  0.001  0.029  0.037
   16  0.000  0.000  0.041  0.042
   17  0.007  0.001  0.029  0.037
   18  0.007  0.001  0.029  0.037
   19  0.012  0.001  0.037  0.049
   20  0.008  0.002  0.010  0.020
   21  0.008  0.002  0.010  0.020
   22  0.000  0.000  0.038  0.039
   23  0.008  0.002  0.010  0.020
   24  0.000  0.000  0.038  0.038
   25  0.012  0.001  0.037  0.049
   26  0.012  0.001  0.037  0.049
   27  0.000  0.000  0.038  0.039
   28  0.002  0.001  0.006  0.009
   29  0.000  0.000  0.005  0.006
   30  0.000  0.000  0.005  0.006
   31  0.000  0.000  0.005  0.006
   32  0.000  0.000  0.005  0.006
   33  0.000  0.000  0.005  0.006
   34  0.000  0.000  0.005  0.006
   35  0.001  0.000  0.000  0.002
   36  0.016  0.003  0.001  0.020
   37  0.000  0.000  0.000  0.000
tot    0.154  0.031  0.580  0.764
 
band    15 # energy   -5.52417810 # occ.  2.00000000
 
ion      s      p      d    tot
    1  0.000  0.001  0.014  0.015
    2  0.010  0.001  0.005  0.016
    3  0.002  0.000  0.005  0.007
    4  0.010  0.001  0.005  0.016
    5  0.000  0.000  0.005  0.005
    6  0.003  0.001  0.005  0.009
    7  0.002  0.000  0.005  0.007
    8  0.003  0.001  0.005  0.010
    9  0.000  0.001  0.007  0.009
   10  0.000  0.001  0.027  0.028
   11  0.001  0.001  0.020  0.022
   12  0.007  0.000  0.022  0.029
   13  0.001  0.001  0.020  0.022
   14  0.000  0.001  0.021  0.022
   15  0.011  0.002  0.021  0.034
   16  0.007  0.000  0.022  0.029
   17  0.011  0.002  0.020  0.033
   18  0.000  0.000  0.064  0.064
   19  0.012  0.001  0.020  0.033
   20  0.000  0.002  0.019  0.020
   21  0.000  0.001  0.024  0.025
   22  0.018  0.001  0.020  0.039
   23  0.000  0.001  0.024  0.024
   24  0.000  0.000  0.034  0.035
   25  0.000  0.000  0.066  0.066
   26  0.012  0.001  0.019  0.033
   27  0.018  0.001  0.020  0.039
   28  0.000  0.001  0.005  0.005
   29  0.006  0.001  0.004  0.010
   30  0.000  0.000  0.005  0.005
   31  0.006  0.001  0.004  0.010
   32  0.003  0.001  0.002  0.006
   33  0.000  0.000  0.005  0.005
   34  0.004  0.001  0.002  0.006
   35  0.000  0.001  0.008  0.009
   36  0.000  0.000  0.001  0.001
   37  0.000  0.000  0.000  0.000
tot    0.148  0.028  0.575  0.751
 
band    16 # energy   -5.52416346 # occ.  2.00000000
 
ion      s      p      d    tot
    1  0.000  0.001  0.014  0.015
    2  0.000  0.000  0.005  0.006
    3  0.008  0.001  0.005  0.014
    4  0.000  0.000  0.005  0.006
    5  0.000  0.000  0.005  0.005
    6  0.007  0.001  0.005  0.012
    7  0.008  0.001  0.005  0.014
    8  0.007  0.001  0.005  0.012
    9  0.000  0.001  0.007  0.009
   10  0.009  0.000  0.021  0.030
   11  0.000  0.001  0.020  0.022
   12  0.002  0.001  0.026  0.028
   13  0.000  0.001  0.020  0.022
   14  0.001  0.001  0.019  0.022
   15  0.004  0.001  0.049  0.054
   16  0.002  0.001  0.025  0.028
   17  0.004  0.001  0.050  0.054
   18  0.015  0.002  0.006  0.024
   19  0.004  0.001  0.050  0.055
   20  0.000  0.000  0.025  0.026
   21  0.000  0.001  0.020  0.022
   22  0.006  0.000  0.030  0.036
   23  0.000  0.001  0.020  0.022
   24  0.024  0.001  0.016  0.040
   25  0.016  0.001  0.004  0.022
   26  0.004  0.001  0.051  0.055
   27  0.006  0.000  0.030  0.036
   28  0.000  0.001  0.005  0.005
   29  0.001  0.000  0.003  0.004
   30  0.006  0.001  0.002  0.009
   31  0.001  0.000  0.003  0.004
   32  0.003  0.001  0.005  0.008
   33  0.006  0.001  0.002  0.009
   34  0.003  0.001  0.005  0.008
   35  0.000  0.001  0.008  0.009
   36  0.000  0.000  0.001  0.001
   37  0.000  0.000  0.000  0.000
tot    0.148  0.028  0.575  0.751
 
band    17 # energy   -5.20914316 # occ.  2.00000000
 
ion      s      p      d    tot
    1  0.000  0.000  0.015  0.015
    2  0.007  0.000  0.011  0.019
    3  0.004  0.001  0.007  0.012
    4  0.007  0.000  0.012  0.019
    5  0.000  0.001  0.024  0.024
    6  0.001  0.000  0.011  0.012
    7  0.004  0.001  0.007  0.011
    8  0.001  0.000  0.011  0.012
    9  0.000  0.001  0.004  0.005
   10  0.000  0.000  0.010  0.010
   11  0.000  0.000  0.049  0.050
   12  0.000  0.000  0.015  0.015
   13  0.000  0.000  0.050  0.050
   14  0.000  0.000  0.050  0.050
   15  0.000  0.000  0.028  0.028
   16  0.000  0.000  0.015  0.016
   17  0.000  0.000  0.027  0.028
   18  0.000  0.000  0.012  0.012
   19  0.000  0.000  0.012  0.013
   20  0.000  0.000  0.044  0.045
   21  0.001  0.000  0.063  0.064
   22  0.000  0.000  0.028  0.029
   23  0.001  0.000  0.063  0.064
   24  0.000  0.000  0.031  0.031
   25  0.000  0.000  0.009  0.009
   26  0.000  0.000  0.012  0.012
   27  0.000  0.000  0.028  0.029
   28  0.000  0.001  0.012  0.012
   29  0.002  0.001  0.007  0.010
   30  0.012  0.001  0.011  0.023
   31  0.002  0.001  0.007  0.010
   32  0.004  0.001  0.014  0.018
   33  0.012  0.001  0.011  0.024
   34  0.004  0.001  0.014  0.019
   35  0.000  0.000  0.022  0.022
   36  0.000  0.004  0.003  0.007
   37  0.000  0.000  0.000  0.000
tot    0.062  0.017  0.752  0.830
 
band    18 # energy   -5.20914009 # occ.  2.00000000
 
ion      s      p      d    tot
    1  0.000  0.000  0.015  0.015
    2  0.000  0.000  0.009  0.010
    3  0.004  0.000  0.013  0.017
    4  0.000  0.000  0.009  0.010
    5  0.000  0.001  0.024  0.024
    6  0.007  0.001  0.009  0.016
    7  0.004  0.000  0.013  0.017
    8  0.007  0.001  0.009  0.016
    9  0.000  0.001  0.004  0.005
   10  0.000  0.000  0.017  0.017
   11  0.000  0.000  0.050  0.050
   12  0.000  0.000  0.012  0.012
   13  0.000  0.000  0.050  0.050
   14  0.000  0.000  0.049  0.050
   15  0.000  0.000  0.017  0.017
   16  0.000  0.000  0.012  0.012
   17  0.000  0.000  0.017  0.017
   18  0.000  0.000  0.033  0.033
   19  0.000  0.000  0.010  0.010
   20  0.001  0.000  0.069  0.071
   21  0.000  0.000  0.051  0.051
   22  0.000  0.000  0.030  0.031
   23  0.000  0.000  0.050  0.051
   24  0.000  0.001  0.027  0.028
   25  0.000  0.000  0.013  0.014
   26  0.000  0.000  0.010  0.010
   27  0.000  0.000  0.030  0.031
   28  0.000  0.001  0.012  0.012
   29  0.009  0.001  0.015  0.025
   30  0.000  0.000  0.011  0.011
   31  0.010  0.001  0.015  0.025
   32  0.008  0.001  0.007  0.016
   33  0.000  0.000  0.010  0.011
   34  0.008  0.001  0.007  0.016
   35  0.000  0.000  0.022  0.022
   36  0.000  0.004  0.003  0.007
   37  0.000  0.000  0.000  0.000
tot    0.062  0.017  0.752  0.830
 
band    19 # energy   -5.19759140 # occ.  2.00000000
 
ion      s      p      d    tot
    1  0.011  0.000  0.003  0.014
    2  0.000  0.000  0.009  0.010
    3  0.000  0.000  0.009  0.010
    4  0.000  0.000  0.009  0.010
    5  0.001  0.000  0.013  0.014
    6  0.000  0.000  0.009  0.010
    7  0.000  0.000  0.009  0.010
    8  0.000  0.000  0.009  0.010
    9  0.004  0.001  0.002  0.006
   10  0.000  0.000  0.023  0.023
   11  0.000  0.000  0.043  0.043
   12  0.000  0.000  0.023  0.023
   13  0.000  0.000  0.043  0.043
   14  0.000  0.000  0.043  0.044
   15  0.000  0.000  0.028  0.029
   16  0.000  0.000  0.023  0.023
   17  0.000  0.000  0.028  0.029
   18  0.000  0.000  0.028  0.029
   19  0.000  0.000  0.024  0.024
   20  0.001  0.000  0.044  0.045
   21  0.001  0.000  0.044  0.045
   22  0.001  0.000  0.030  0.031
   23  0.001  0.000  0.044  0.045
   24  0.001  0.000  0.030  0.031
   25  0.000  0.000  0.024  0.024
   26  0.000  0.000  0.024  0.024
   27  0.001  0.000  0.030  0.031
   28  0.014  0.001  0.000  0.015
   29  0.000  0.001  0.017  0.018
   30  0.000  0.001  0.017  0.018
   31  0.000  0.001  0.017  0.018
   32  0.000  0.001  0.017  0.018
   33  0.000  0.001  0.017  0.018
   34  0.000  0.001  0.017  0.018
   35  0.018  0.001  0.004  0.023
   36  0.000  0.000  0.004  0.005
   37  0.000  0.000  0.000  0.000
tot    0.054  0.014  0.762  0.829
 
band    20 # energy   -5.18096668 # occ.  2.00000000
 
ion      s      p      d    tot
    1  0.000  0.000  0.006  0.007
    2  0.000  0.001  0.020  0.021
    3  0.000  0.001  0.020  0.021
    4  0.000  0.001  0.020  0.021
    5  0.025  0.001  0.000  0.026
    6  0.000  0.001  0.020  0.021
    7  0.000  0.001  0.020  0.021
    8  0.000  0.001  0.020  0.021
    9  0.020  0.000  0.009  0.030
   10  0.000  0.000  0.035  0.036
   11  0.000  0.001  0.032  0.033
   12  0.000  0.000  0.035  0.036
   13  0.000  0.001  0.032  0.033
   14  0.000  0.001  0.032  0.033
   15  0.000  0.000  0.030  0.031
   16  0.000  0.000  0.035  0.036
   17  0.000  0.000  0.030  0.031
   18  0.000  0.000  0.030  0.031
   19  0.001  0.000  0.024  0.025
   20  0.000  0.000  0.031  0.031
   21  0.000  0.000  0.031  0.031
   22  0.000  0.000  0.016  0.016
   23  0.000  0.000  0.031  0.031
   24  0.000  0.000  0.016  0.016
   25  0.001  0.000  0.024  0.025
   26  0.001  0.000  0.024  0.025
   27  0.000  0.000  0.016  0.016
   28  0.008  0.000  0.008  0.017
   29  0.000  0.000  0.015  0.016
   30  0.000  0.000  0.015  0.016
   31  0.000  0.000  0.015  0.016
   32  0.000  0.000  0.015  0.016
   33  0.000  0.000  0.015  0.016
   34  0.000  0.000  0.015  0.016
   35  0.000  0.000  0.003  0.003
   36  0.007  0.001  0.001  0.009
   37  0.000  0.000  0.000  0.000
tot    0.066  0.016  0.743  0.826
 
band    21 # energy   -5.14897729 # occ.  2.00000000
 
ion      s      p      d    tot
    1  0.000  0.002  0.011  0.013
    2  0.013  0.001  0.017  0.031
    3  0.011  0.001  0.011  0.023
    4  0.013  0.001  0.017  0.031
    5  0.000  0.001  0.021  0.022
    6  0.000  0.001  0.017  0.017
    7  0.011  0.001  0.011  0.023
    8  0.000  0.001  0.017  0.017
    9  0.000  0.000  0.038  0.038
   10  0.000  0.001  0.052  0.053
   11  0.000  0.000  0.022  0.022
   12  0.000  0.000  0.054  0.054
   13  0.000  0.000  0.022  0.022
   14  0.000  0.000  0.026  0.026
   15  0.000  0.001  0.033  0.033
   16  0.000  0.000  0.054  0.054
   17  0.000  0.001  0.032  0.033
   18  0.000  0.001  0.029  0.030
   19  0.000  0.000  0.024  0.025
   20  0.000  0.000  0.019  0.019
   21  0.000  0.000  0.014  0.015
   22  0.001  0.000  0.010  0.011
   23  0.000  0.000  0.014  0.015
   24  0.003  0.000  0.023  0.026
   25  0.001  0.000  0.036  0.037
   26  0.000  0.000  0.024  0.025
   27  0.001  0.000  0.010  0.011
   28  0.000  0.000  0.016  0.017
   29  0.000  0.000  0.007  0.008
   30  0.005  0.000  0.004  0.010
   31  0.000  0.000  0.007  0.008
   32  0.004  0.000  0.010  0.014
   33  0.005  0.000  0.004  0.010
   34  0.004  0.000  0.010  0.014
   35  0.000  0.001  0.005  0.006
   36  0.000  0.000  0.004  0.004