PROCAR new format
# of k-points:   10         # of bands:  252         # of ions:   37

 k-point     1 :    0.00000000 0.00000000 0.00000000     weight = 0.01562500

band     1 # energy  -13.84266787 # occ.  2.00000000
 
ion      s      p      d    tot
    1  0.000  0.000  0.000  0.000
    2  0.000  0.000  0.000  0.000
    3  0.000  0.000  0.000  0.000
    4  0.000  0.000  0.000  0.000
    5  0.000  0.000  0.000  0.000
    6  0.000  0.000  0.000  0.000
    7  0.000  0.000  0.000  0.000
    8  0.000  0.000  0.000  0.000
    9  0.000  0.000  0.000  0.000
   10  0.000  0.000  0.000  0.000
   11  0.000  0.000  0.000  0.000
   12  0.000  0.000  0.000  0.000
   13  0.000  0.000  0.000  0.000
   14  0.000  0.000  0.000  0.000
   15  0.000  0.000  0.000  0.000
   16  0.000  0.000  0.000  0.000
   17  0.000  0.000  0.000  0.000
   18  0.000  0.000  0.000  0.000
   19  0.000  0.000  0.000  0.000
   20  0.000  0.000  0.000  0.000
   21  0.000  0.000  0.000  0.000
   22  0.000  0.000  0.000  0.000
   23  0.000  0.000  0.000  0.000
   24  0.000  0.000  0.000  0.000
   25  0.000  0.000  0.000  0.000
   26  0.000  0.000  0.000  0.000
   27  0.000  0.000  0.000  0.000
   28  0.000  0.000  0.000  0.000
   29  0.000  0.000  0.000  0.000
   30  0.000  0.000  0.000  0.000
   31  0.000  0.000  0.000  0.000
   32  0.000  0.000  0.000  0.000
   33  0.000  0.000  0.000  0.000
   34  0.000  0.000  0.000  0.000
   35  0.000  0.000  0.000  0.000
   36  0.079  0.064  0.167  0.311
   37  0.586  0.032  0.000  0.618
tot    0.667  0.096  0.168  0.931
 
band     2 # energy   -8.10987594 # occ.  2.00000000
 
ion      s      p      d    tot
    1  0.006  0.001  0.000  0.007
    2  0.006  0.001  0.000  0.007
    3  0.006  0.001  0.000  0.007
    4  0.006  0.001  0.000  0.007
    5  0.006  0.001  0.000  0.007
    6  0.006  0.001  0.000  0.007
    7  0.006  0.001  0.000  0.007
    8  0.006  0.001  0.000  0.007
    9  0.006  0.001  0.000  0.007
   10  0.026  0.000  0.000  0.026
   11  0.026  0.000  0.000  0.026
   12  0.026  0.000  0.000  0.026
   13  0.026  0.000  0.000  0.026
   14  0.026  0.000  0.000  0.026
   15  0.025  0.000  0.000  0.026
   16  0.026  0.000  0.000  0.026
   17  0.025  0.000  0.000  0.026
   18  0.025  0.000  0.000  0.026
   19  0.024  0.000  0.000  0.025
   20  0.027  0.000  0.000  0.027
   21  0.027  0.000  0.000  0.027
   22  0.025  0.000  0.000  0.025
   23  0.027  0.000  0.000  0.027
   24  0.025  0.000  0.000  0.025
   25  0.024  0.000  0.000  0.025
   26  0.024  0.000  0.000  0.025
   27  0.025  0.000  0.000  0.025
   28  0.005  0.000  0.000  0.006
   29  0.005  0.000  0.000  0.006
   30  0.005  0.000  0.000  0.006
   31  0.005  0.000  0.000  0.006
   32  0.005  0.000  0.000  0.006
   33  0.005  0.000  0.000  0.006
   34  0.005  0.000  0.000  0.006
   35  0.005  0.000  0.000  0.006
   36  0.007  0.002  0.000  0.009
   37  0.001  0.000  0.000  0.001
tot    0.566  0.013  0.003  0.582
 
band     3 # energy   -6.96066318 # occ.  2.00000000
 
ion      s      p      d    tot
    1  0.016  0.000  0.001  0.018
    2  0.016  0.000  0.001  0.018
    3  0.016  0.000  0.001  0.018
    4  0.016  0.000  0.001  0.018
    5  0.016  0.000  0.001  0.017
    6  0.016  0.000  0.001  0.018
    7  0.016  0.000  0.001  0.018
    8  0.016  0.000  0.001  0.018
    9  0.017  0.000  0.001  0.018
   10  0.011  0.001  0.002  0.015
   11  0.011  0.001  0.002  0.015
   12  0.011  0.001  0.002  0.015
   13  0.011  0.001  0.002  0.015
   14  0.011  0.001  0.002  0.015
   15  0.012  0.001  0.002  0.015
   16  0.011  0.001  0.002  0.015
   17  0.012  0.001  0.002  0.015
   18  0.012  0.001  0.002  0.015
   19  0.011  0.001  0.003  0.015
   20  0.013  0.001  0.002  0.017
   21  0.013  0.001  0.002  0.017
   22  0.012  0.001  0.003  0.016
   23  0.013  0.001  0.002  0.017
   24  0.012  0.001  0.003  0.016
   25  0.011  0.001  0.003  0.015
   26  0.011  0.001  0.003  0.015
   27  0.012  0.001  0.003  0.016
   28  0.014  0.000  0.001  0.016
   29  0.016  0.001  0.001  0.017
   30  0.016  0.001  0.001  0.017
   31  0.016  0.001  0.001  0.017
   32  0.016  0.001  0.001  0.017
   33  0.016  0.001  0.001  0.017
   34  0.016  0.001  0.001  0.017
   35  0.015  0.000  0.001  0.016
   36  0.019  0.002  0.005  0.026
   37  0.002  0.000  0.000  0.002
tot    0.500  0.034  0.066  0.600
 
band     4 # energy   -6.04278592 # occ.  2.00000000
 
ion      s      p      d    tot
    1  0.001  0.000  0.005  0.006
    2  0.005  0.000  0.003  0.008
    3  0.005  0.000  0.003  0.008
    4  0.005  0.000  0.003  0.008
    5  0.004  0.000  0.002  0.006
    6  0.005  0.000  0.003  0.008
    7  0.005  0.000  0.003  0.008
    8  0.005  0.000  0.003  0.008
    9  0.012  0.000  0.002  0.014
   10  0.004  0.001  0.004  0.009
   11  0.001  0.001  0.003  0.005
   12  0.004  0.001  0.004  0.009
   13  0.001  0.001  0.003  0.005
   14  0.001  0.001  0.003  0.005
   15  0.003  0.001  0.001  0.004
   16  0.004  0.001  0.004  0.009
   17  0.003  0.001  0.001  0.004
   18  0.003  0.001  0.001  0.004
   19  0.005  0.001  0.016  0.022
   20  0.020  0.001  0.023  0.043
   21  0.020  0.001  0.023  0.043
   22  0.000  0.001  0.012  0.013
   23  0.020  0.001  0.023  0.043
   24  0.000  0.001  0.012  0.013
   25  0.005  0.001  0.016  0.022
   26  0.005  0.001  0.016  0.022
   27  0.000  0.001  0.012  0.013
   28  0.016  0.000  0.009  0.025
   29  0.018  0.000  0.014  0.032
   30  0.018  0.000  0.014  0.032
   31  0.018  0.000  0.014  0.032
   32  0.018  0.000  0.014  0.032
   33  0.018  0.000  0.014  0.032
   34  0.018  0.000  0.014  0.032
   35  0.028  0.000  0.010  0.038
   36  0.004  0.002  0.075  0.081
   37  0.002  0.008  0.000  0.010
tot    0.300  0.028  0.381  0.710
 
band     5 # energy   -5.98201522 # occ.  2.00000000
 
ion      s      p      d    tot
    1  0.017  0.000  0.001  0.019
    2  0.006  0.000  0.007  0.013
    3  0.005  0.000  0.007  0.013
    4  0.006  0.000  0.007  0.013
    5  0.012  0.000  0.005  0.017
    6  0.005  0.000  0.007  0.013
    7  0.005  0.000  0.007  0.013
    8  0.005  0.000  0.007  0.013
    9  0.000  0.001  0.009  0.010
   10  0.001  0.000  0.024  0.025
   11  0.002  0.002  0.010  0.014
   12  0.001  0.000  0.024  0.024
   13  0.002  0.002  0.010  0.014
   14  0.001  0.002  0.009  0.012
   15  0.029  0.002  0.004  0.035
   16  0.001  0.000  0.024  0.024
   17  0.029  0.002  0.004  0.035
   18  0.029  0.002  0.004  0.036
   19  0.004  0.001  0.019  0.023
   20  0.015  0.001  0.017  0.033
   21  0.012  0.001  0.017  0.030
   22  0.019  0.003  0.003  0.024
   23  0.012  0.001  0.017  0.030
   24  0.020  0.003  0.002  0.025
   25  0.004  0.001  0.017  0.023
   26  0.004  0.001  0.019  0.023
   27  0.019  0.003  0.003  0.024
   28  0.000  0.000  0.005  0.006
   29  0.003  0.001  0.007  0.011
   30  0.003  0.001  0.007  0.011
   31  0.003  0.001  0.007  0.011
   32  0.003  0.000  0.007  0.011
   33  0.003  0.001  0.007  0.011
   34  0.003  0.000  0.007  0.011
   35  0.000  0.001  0.003  0.004
   36  0.035  0.005  0.002  0.041
   37  0.003  0.001  0.000  0.004
tot    0.322  0.039  0.340  0.701
 
band     6 # energy   -5.98067498 # occ.  2.00000000
 
ion      s      p      d    tot
    1  0.000  0.001  0.008  0.009
    2  0.003  0.001  0.002  0.007
    3  0.000  0.000  0.003  0.003
    4  0.003  0.001  0.002  0.007
    5  0.000  0.001  0.005  0.005
    6  0.005  0.001  0.003  0.009
    7  0.000  0.000  0.003  0.003
    8  0.005  0.001  0.003  0.009
    9  0.000  0.000  0.001  0.001
   10  0.042  0.002  0.004  0.049
   11  0.009  0.003  0.015  0.028
   12  0.011  0.001  0.026  0.038
   13  0.010  0.003  0.015  0.028
   14  0.039  0.000  0.012  0.052
   15  0.000  0.002  0.008  0.010
   16  0.011  0.001  0.027  0.038
   17  0.000  0.002  0.008  0.010
   18  0.000  0.001  0.009  0.010
   19  0.005  0.003  0.006  0.015
   20  0.064  0.001  0.009  0.074
   21  0.018  0.001  0.031  0.050
   22  0.003  0.001  0.018  0.022
   23  0.017  0.001  0.031  0.049
   24  0.009  0.001  0.006  0.016
   25  0.018  0.000  0.015  0.033
   26  0.005  0.003  0.007  0.015
   27  0.003  0.001  0.018  0.022
   28  0.000  0.001  0.002  0.002
   29  0.006  0.001  0.004  0.011
   30  0.003  0.001  0.003  0.007
   31  0.006  0.001  0.004  0.011
   32  0.001  0.000  0.003  0.004
   33  0.003  0.001  0.003  0.007
   34  0.001  0.000  0.003  0.004
   35  0.000  0.000  0.003  0.003
   36  0.000  0.002  0.033  0.035
   37  0.000  0.002  0.000  0.002
tot    0.299  0.043  0.357  0.699
 
band     7 # energy   -5.98065375 # occ.  2.00000000
 
ion      s      p      d    tot
    1  0.000  0.001  0.008  0.009
    2  0.002  0.001  0.003  0.006
    3  0.006  0.001  0.003  0.010
    4  0.002  0.001  0.003  0.006
    5  0.000  0.001  0.005  0.005
    6  0.001  0.000  0.002  0.004
    7  0.006  0.001  0.003  0.010
    8  0.001  0.000  0.002  0.004
    9  0.000  0.000  0.001  0.001
   10  0.000  0.000  0.034  0.034
   11  0.029  0.001  0.013  0.043
   12  0.032  0.002  0.012  0.045
   13  0.029  0.001  0.013  0.043
   14  0.000  0.004  0.017  0.021
   15  0.000  0.001  0.009  0.010
   16  0.032  0.002  0.012  0.046
   17  0.000  0.001  0.009  0.010
   18  0.000  0.002  0.008  0.010
   19  0.014  0.001  0.012  0.027
   20  0.000  0.001  0.038  0.039
   21  0.049  0.001  0.017  0.067
   22  0.007  0.001  0.010  0.019
   23  0.050  0.001  0.016  0.067
   24  0.000  0.001  0.022  0.023
   25  0.000  0.004  0.005  0.009
   26  0.014  0.001  0.012  0.027
   27  0.007  0.001  0.010  0.018
   28  0.000  0.001  0.002  0.002
   29  0.000  0.000  0.003  0.003
   30  0.003  0.001  0.004  0.008
   31  0.000  0.000  0.003  0.004
   32  0.006  0.001  0.004  0.010
   33  0.003  0.001  0.004  0.008
   34  0.006  0.001  0.004  0.011
   35  0.000  0.000  0.003  0.003
   36  0.000  0.002  0.033  0.035
   37  0.000  0.002  0.000  0.002
tot    0.299  0.043  0.357  0.699
 
band     8 # energy   -5.94901202 # occ.  2.00000000
 
ion      s      p      d    tot
    1  0.014  0.000  0.015  0.030
    2  0.012  0.000  0.014  0.027
    3  0.012  0.000  0.014  0.027
    4  0.012  0.000  0.014  0.027
    5  0.004  0.000  0.016  0.021
    6  0.012  0.000  0.014  0.027
    7  0.012  0.000  0.014  0.027
    8  0.012  0.000  0.014  0.027
    9  0.021  0.000  0.010  0.031
   10  0.003  0.000  0.027  0.031
   11  0.021  0.001  0.019  0.040
   12  0.003  0.000  0.027  0.031
   13  0.021  0.001  0.019  0.040
   14  0.021  0.001  0.019  0.040
   15  0.001  0.000  0.030  0.031
   16  0.003  0.000  0.027  0.031
   17  0.001  0.000  0.030  0.031
   18  0.001  0.000  0.030  0.031
   19  0.010  0.000  0.009  0.019
   20  0.000  0.001  0.017  0.017
   21  0.000  0.001  0.017  0.017
   22  0.002  0.000  0.013  0.016
   23  0.000  0.001  0.017  0.017
   24  0.002  0.000  0.013  0.016
   25  0.010  0.000  0.009  0.019
   26  0.010  0.000  0.009  0.019
   27  0.002  0.000  0.013  0.016
   28  0.000  0.000  0.003  0.003
   29  0.001  0.000  0.003  0.004
   30  0.001  0.000  0.003  0.004
   31  0.001  0.000  0.003  0.004
   32  0.001  0.000  0.003  0.004
   33  0.001  0.000  0.003  0.004
   34  0.001  0.000  0.003  0.004
   35  0.001  0.000  0.001  0.002
   36  0.005  0.000  0.007  0.012
   37  0.000  0.000  0.000  0.000
tot    0.238  0.009  0.500  0.748
 
band     9 # energy   -5.92108184 # occ.  2.00000000
 
ion      s      p      d    tot
    1  0.000  0.001  0.002  0.003
    2  0.002  0.001  0.004  0.006
    3  0.007  0.001  0.003  0.012
    4  0.004  0.001  0.004  0.009
    5  0.000  0.000  0.006  0.006
    6  0.002  0.001  0.003  0.005
    7  0.008  0.001  0.004  0.013
    8  0.000  0.000  0.003  0.004
    9  0.000  0.001  0.010  0.011
   10  0.015  0.000  0.016  0.030
   11  0.006  0.001  0.020  0.028
   12  0.002  0.004  0.004  0.010
   13  0.002  0.001  0.026  0.029
   14  0.015  0.002  0.006  0.023
   15  0.024  0.002  0.024  0.050
   16  0.006  0.003  0.008  0.016
   17  0.008  0.002  0.032  0.042
   18  0.059  0.001  0.008  0.069
   19  0.014  0.001  0.024  0.039
   20  0.001  0.001  0.014  0.015
   21  0.000  0.003  0.007  0.010
   22  0.006  0.003  0.020  0.029
   23  0.000  0.002  0.009  0.011
   24  0.045  0.001  0.011  0.057
   25  0.034  0.002  0.004  0.040
   26  0.005  0.000  0.033  0.038
   27  0.019  0.002  0.017  0.038
   28  0.000  0.000  0.007  0.007
   29  0.001  0.000  0.003  0.004
   30  0.004  0.001  0.002  0.007
   31  0.000  0.000  0.002  0.003
   32  0.006  0.001  0.003  0.010
   33  0.002  0.000  0.002  0.004
   34  0.005  0.001  0.003  0.009
   35  0.000  0.001  0.005  0.006
   36  0.000  0.000  0.001  0.001
   37  0.000  0.000  0.000  0.000
tot    0.302  0.042  0.350  0.693
 
band    10 # energy   -5.92108012 # occ.  2.00000000
 
ion      s      p      d    tot
    1  0.000  0.001  0.002  0.003
    2  0.006  0.001  0.003  0.010
    3  0.001  0.000  0.003  0.004
    4  0.004  0.001  0.003  0.007
    5  0.000  0.000  0.006  0.006
    6  0.006  0.001  0.004  0.011
    7  0.000  0.000  0.003  0.003
    8  0.007  0.001  0.004  0.012
    9  0.000  0.001  0.010  0.011
   10  0.000  0.004  0.003  0.007
   11  0.009  0.001  0.015  0.026
   12  0.013  0.001  0.014  0.028
   13  0.014  0.001  0.009  0.024
   14  0.000  0.001  0.029  0.030
   15  0.037  0.002  0.019  0.057
   16  0.009  0.002  0.011  0.021
   17  0.053  0.001  0.011  0.065
   18  0.002  0.002  0.035  0.038
   19  0.021  0.001  0.017  0.039
   20  0.000  0.003  0.006  0.009
   21  0.000  0.001  0.013  0.014
   22  0.040  0.001  0.012  0.054
   23  0.000  0.002  0.011  0.013
   24  0.001  0.003  0.021  0.025
   25  0.001  0.000  0.037  0.038
   26  0.031  0.002  0.007  0.040
   27  0.028  0.002  0.015  0.045
   28  0.000  0.000  0.007  0.007
   29  0.005  0.001  0.002  0.008
   30  0.002  0.001  0.003  0.006
   31  0.006  0.001  0.003  0.010
   32  0.000  0.000  0.002  0.002
   33  0.004  0.001  0.003  0.008
   34  0.001  0.000  0.002  0.003
   35  0.000  0.001  0.005  0.006
   36  0.000  0.000  0.001  0.001
   37  0.000  0.000  0.000  0.000
tot    0.302  0.042  0.349  0.693
 
band    11 # energy   -5.91563794 # occ.  2.00000000
 
ion      s      p      d    tot
    1  0.006  0.001  0.002  0.010
    2  0.001  0.001  0.006  0.007
    3  0.000  0.001  0.006  0.007
    4  0.001  0.001  0.006  0.007
    5  0.017  0.001  0.000  0.018
    6  0.001  0.001  0.006  0.007
    7  0.000  0.001  0.006  0.007
    8  0.001  0.001  0.006  0.007
    9  0.000  0.000  0.002  0.003
   10  0.029  0.003  0.001  0.033
   11  0.013  0.000  0.027  0.040
   12  0.030  0.003  0.001  0.034
   13  0.013  0.000  0.027  0.040
   14  0.014  0.000  0.027  0.041
   15  0.000  0.001  0.022  0.023
   16  0.030  0.003  0.001  0.034
   17  0.000  0.001  0.022  0.023
   18  0.000  0.001  0.021  0.023
   19  0.017  0.002  0.009  0.029
   20  0.005  0.002  0.016  0.024
   21  0.005  0.002  0.016  0.024
   22  0.015  0.000  0.022  0.037
   23  0.005  0.002  0.016  0.024
   24  0.016  0.000  0.022  0.037
   25  0.018  0.002  0.009  0.029
   26  0.017  0.002  0.009  0.029
   27  0.015  0.000  0.022  0.037
   28  0.016  0.001  0.000  0.017
   29  0.001  0.000  0.005  0.006
   30  0.001  0.000  0.005  0.006
   31  0.001  0.000  0.005  0.006
   32  0.001  0.000  0.005  0.006
   33  0.001  0.000  0.005  0.006
   34  0.001  0.000  0.005  0.006
   35  0.002  0.001  0.005  0.008
   36  0.000  0.000  0.001  0.001
   37  0.000  0.000  0.000  0.000
tot    0.295  0.038  0.366  0.699
 
band    12 # energy   -5.49947516 # occ.  2.00000000
 
ion      s      p      d    tot
    1  0.002  0.000  0.001  0.003
    2  0.000  0.001  0.008  0.009
    3  0.000  0.001  0.008  0.009
    4  0.000  0.001  0.008  0.009
    5  0.018  0.002  0.000  0.020
    6  0.000  0.001  0.008  0.009
    7  0.000  0.001  0.008  0.009
    8  0.000  0.001  0.008  0.009
    9  0.008  0.001  0.002  0.012
   10  0.001  0.000  0.041  0.042
   11  0.009  0.002  0.006  0.016
   12  0.001  0.000  0.041  0.041
   13  0.009  0.002  0.006  0.016
   14  0.008  0.002  0.006  0.016
   15  0.014  0.001  0.022  0.037
   16  0.001  0.000  0.041  0.041
   17  0.014  0.001  0.022  0.037
   18  0.014  0.001  0.022  0.038
   19  0.009  0.001  0.024  0.034
   20  0.006  0.003  0.017  0.025
   21  0.005  0.003  0.017  0.025
   22  0.000  0.000  0.032  0.033
   23  0.005  0.003  0.017  0.025
   24  0.000  0.000  0.031  0.032
   25  0.009  0.001  0.024  0.033
   26  0.009  0.001  0.024  0.034
   27  0.000  0.000  0.032  0.033
   28  0.002  0.001  0.002  0.004
   29  0.000  0.001  0.007  0.007
   30  0.000  0.001  0.007  0.007
   31  0.000  0.001  0.007  0.007
   32  0.000  0.001  0.006  0.007
   33  0.000  0.001  0.007  0.007
   34  0.000  0.001  0.006  0.007
   35  0.004  0.000  0.000  0.004
   36  0.027  0.006  0.005  0.038
   37  0.006  0.006  0.000  0.012
tot    0.180  0.046  0.520  0.745
 
band    13 # energy   -5.49581666 # occ.  2.00000000
 
ion      s      p      d    tot
    1  0.000  0.000  0.004  0.005
    2  0.002  0.001  0.005  0.008
    3  0.010  0.002  0.004  0.016
    4  0.002  0.001  0.005  0.008
    5  0.000  0.002  0.009  0.011
    6  0.003  0.001  0.004  0.008
    7  0.010  0.002  0.004  0.016
    8  0.003  0.001  0.004  0.008
    9  0.000  0.000  0.009  0.010
   10  0.000  0.001  0.043  0.044
   11  0.020  0.001  0.019  0.039
   12  0.006  0.001  0.019  0.026
   13  0.020  0.001  0.019  0.039
   14  0.000  0.000  0.052  0.052
   15  0.003  0.000  0.019  0.023
   16  0.006  0.001  0.019  0.026
   17  0.003  0.000  0.019  0.023
   18  0.000  0.001  0.013  0.014
   19  0.001  0.000  0.016  0.018
   20  0.000  0.000  0.066  0.066
   21  0.014  0.001  0.021  0.036
   22  0.005  0.001  0.017  0.023
   23  0.014  0.001  0.021  0.036
   24  0.000  0.001  0.034  0.034
   25  0.000  0.001  0.008  0.009
   26  0.001  0.000  0.016  0.018
   27  0.005  0.001  0.017  0.023
   28  0.000  0.000  0.006  0.006
   29  0.004  0.001  0.004  0.009
   30  0.006  0.001  0.006  0.014
   31  0.004  0.001  0.004  0.009
   32  0.000  0.000  0.004  0.005
   33  0.006  0.001  0.006  0.014
   34  0.000  0.000  0.004  0.005
   35  0.000  0.000  0.002  0.003
   36  0.000  0.002  0.045  0.047
   37  0.000  0.004  0.000  0.004
tot    0.150  0.033  0.571  0.753
 
band    14 # energy   -5.49578398 # occ.  2.00000000
 
ion      s      p      d    tot
    1  0.000  0.000  0.004  0.005
    2  0.008  0.001  0.004  0.013
    3  0.000  0.000  0.005  0.005
    4  0.008  0.001  0.004  0.013
    5  0.000  0.002  0.009  0.011
    6  0.007  0.001  0.005  0.014
    7  0.000  0.000  0.005  0.005
    8  0.007  0.001  0.005  0.014
    9  0.000  0.000  0.009  0.010
   10  0.007  0.001  0.010  0.019
   11  0.006  0.000  0.041  0.048
   12  0.002  0.001  0.035  0.038
   13  0.006  0.000  0.041  0.048
   14  0.027  0.001  0.007  0.035
   15  0.001  0.001  0.015  0.017
   16  0.002  0.001  0.035  0.038
   17  0.001  0.001  0.015  0.017
   18  0.005  0.000  0.021  0.025
   19  0.001  0.001  0.011  0.012
   20  0.018  0.001  0.006  0.026
   21  0.005  0.000  0.051  0.056
   22  0.002  0.001  0.028  0.030
   23  0.005  0.000  0.051  0.056
   24  0.006  0.002  0.012  0.020
   25  0.002  0.000  0.020  0.021
   26  0.001  0.001  0.011  0.012
   27  0.002  0.001  0.028  0.030
   28  0.000  0.000  0.006  0.006
   29  0.003  0.001  0.006  0.009
   30  0.001  0.000  0.003  0.004
   31  0.003  0.001  0.006  0.009
   32  0.007  0.001  0.006  0.014
   33  0.001  0.000  0.003  0.004
   34  0.007  0.001  0.006  0.014
   35  0.000  0.000  0.002  0.003
   36  0.000  0.002  0.045  0.047
   37  0.000  0.004  0.000  0.004
tot    0.150  0.033  0.571  0.753
 
band    15 # energy   -5.45771011 # occ.  2.00000000
 
ion      s      p      d    tot
    1  0.014  0.002  0.002  0.018
    2  0.000  0.001  0.008  0.008
    3  0.000  0.001  0.008  0.008
    4  0.000  0.001  0.008  0.008
    5  0.000  0.000  0.002  0.002
    6  0.000  0.001  0.008  0.008
    7  0.000  0.001  0.008  0.008
    8  0.000  0.001  0.008  0.008
    9  0.014  0.001  0.000  0.015
   10  0.010  0.002  0.011  0.022
   11  0.003  0.000  0.041  0.044
   12  0.010  0.002  0.011  0.022
   13  0.003  0.000  0.041  0.044
   14  0.003  0.000  0.041  0.044
   15  0.002  0.001  0.025  0.028
   16  0.010  0.002  0.011  0.022
   17  0.002  0.001  0.025  0.028
   18  0.002  0.001  0.025  0.028
   19  0.004  0.001  0.013  0.018
   20  0.001  0.000  0.047  0.048
   21  0.001  0.000  0.047  0.048
   22  0.012  0.001  0.020  0.033
   23  0.001  0.000  0.047  0.048
   24  0.012  0.001  0.020  0.033
   25  0.004  0.001  0.013  0.018
   26  0.004  0.001  0.013  0.018
   27  0.012  0.001  0.020  0.033
   28  0.018  0.001  0.000  0.020
   29  0.000  0.001  0.007  0.008
   30  0.000  0.001  0.007  0.008
   31  0.000  0.001  0.007  0.008
   32  0.000  0.001  0.007  0.008
   33  0.000  0.001  0.007  0.008
   34  0.000  0.001  0.007  0.008
   35  0.004  0.001  0.004  0.010
   36  0.001  0.000  0.005  0.006
   37  0.000  0.001  0.000  0.001
tot    0.151  0.029  0.573  0.752
 
band    16 # energy   -5.44141990 # occ.  2.00000000
 
ion      s      p      d    tot
    1  0.000  0.001  0.013  0.014
    2  0.008  0.001  0.004  0.013
    3  0.000  0.000  0.005  0.005
    4  0.008  0.001  0.004  0.013
    5  0.000  0.000  0.007  0.007
    6  0.007  0.001  0.005  0.013
    7  0.000  0.000  0.005  0.005
    8  0.006  0.001  0.005  0.013
    9  0.000  0.001  0.005  0.006
   10  0.000  0.000  0.038  0.038
   11  0.000  0.001  0.019  0.020
   12  0.012  0.001  0.021  0.034
   13  0.000  0.001  0.019  0.020
   14  0.000  0.001  0.014  0.015
   15  0.011  0.002  0.019  0.031
   16  0.012  0.001  0.021  0.034
   17  0.011  0.002  0.019  0.032
   18  0.000  0.000  0.059  0.059
   19  0.015  0.001  0.019  0.036
   20  0.000  0.002  0.022  0.023
   21  0.000  0.001  0.021  0.022
   22  0.013  0.001  0.020  0.033
   23  0.000  0.001  0.021  0.022
   24  0.000  0.001  0.026  0.026
   25  0.000  0.000  0.065  0.065
   26  0.015  0.001  0.020  0.036
   27  0.013  0.001  0.020  0.033
   28  0.000  0.001  0.006  0.007
   29  0.005  0.001  0.004  0.011
   30  0.000  0.000  0.005  0.005
   31  0.005  0.001  0.004  0.011
   32  0.008  0.001  0.003  0.012
   33  0.000  0.000  0.005  0.005
   34  0.007  0.001  0.003  0.012
   35  0.000  0.001  0.010  0.010
   36  0.000  0.000  0.006  0.006
   37  0.000  0.000  0.000  0.000
tot    0.156  0.031  0.560  0.747
 
band    17 # energy   -5.44141127 # occ.  2.00000000
 
ion      s      p      d    tot
    1  0.000  0.001  0.013  0.014
    2  0.002  0.001  0.005  0.008
    3  0.010  0.001  0.004  0.015
    4  0.002  0.001  0.005  0.008
    5  0.000  0.000  0.007  0.007
    6  0.003  0.001  0.004  0.008
    7  0.010  0.001  0.004  0.015
    8  0.003  0.001  0.004  0.008
    9  0.000  0.001  0.005  0.006
   10  0.016  0.001  0.016  0.032
   11  0.000  0.001  0.016  0.017
   12  0.004  0.001  0.032  0.037
   13  0.000  0.001  0.016  0.017
   14  0.000  0.001  0.021  0.022
   15  0.004  0.001  0.046  0.050
   16  0.004  0.001  0.032  0.037
   17  0.004  0.001  0.045  0.050
   18  0.014  0.002  0.006  0.022
   19  0.005  0.001  0.050  0.055
   20  0.000  0.001  0.020  0.021
   21  0.000  0.001  0.021  0.023
   22  0.004  0.001  0.024  0.029
   23  0.000  0.001  0.021  0.023
   24  0.017  0.000  0.018  0.036
   25  0.020  0.002  0.005  0.026
   26  0.005  0.001  0.049  0.055
   27  0.004  0.001  0.024  0.029
   28  0.000  0.001  0.006  0.007
   29  0.003  0.001  0.004  0.008
   30  0.009  0.001  0.004  0.013
   31  0.003  0.001  0.004  0.008
   32  0.001  0.001  0.005  0.007
   33  0.009  0.001  0.004  0.013
   34  0.001  0.001  0.005  0.007
   35  0.000  0.001  0.010  0.010
   36  0.000  0.000  0.006  0.006
   37  0.000  0.000  0.000  0.000
tot    0.156  0.031  0.560  0.747
 
band    18 # energy   -5.13758164 # occ.  2.00000000
 
ion      s      p      d    tot
    1  0.009  0.000  0.004  0.013
    2  0.000  0.001  0.009  0.010
    3  0.000  0.001  0.009  0.010
    4  0.000  0.001  0.009  0.010
    5  0.001  0.000  0.004  0.005
    6  0.000  0.001  0.009  0.010
    7  0.000  0.001  0.009  0.010
    8  0.000  0.001  0.009  0.010
    9  0.013  0.001  0.000  0.014
   10  0.000  0.000  0.015  0.016
   11  0.000  0.000  0.027  0.027
   12  0.000  0.000  0.015  0.015
   13  0.000  0.000  0.027  0.027
   14  0.000  0.000  0.027  0.027
   15  0.000  0.000  0.021  0.022
   16  0.000  0.000  0.015  0.015
   17  0.000  0.000  0.021  0.022
   18  0.000  0.000  0.021  0.022
   19  0.000  0.000  0.014  0.015
   20  0.001  0.000  0.033  0.034
   21  0.001  0.000  0.033  0.034
   22  0.000  0.000  0.034  0.034
   23  0.001  0.000  0.033  0.034
   24  0.000  0.000  0.033  0.034
   25  0.000  0.000  0.014  0.015
   26  0.000  0.000  0.014  0.015
   27  0.000  0.000  0.034  0.034
   28  0.000  0.000  0.006  0.007
   29  0.000  0.001  0.025  0.026
   30  0.000  0.001  0.025  0.026
   31  0.000  0.001  0.025  0.026
   32  0.000  0.001  0.025  0.026
   33  0.000  0.001  0.025  0.026
   34  0.000  0.001  0.025  0.026
   35  0.031  0.001  0.004  0.035
   36  0.008  0.000  0.067  0.074
   37  0.003  0.010  0.000  0.013
tot    0.073  0.028  0.720  0.821
 
band    19 # energy   -5.10313801 # occ.  2.00000000
 
ion      s      p      d    tot
    1  0.000  0.000  0.015  0.016
    2  0.001  0.001  0.008  0.009
    3  0.004  0.000  0.011  0.016
    4  0.000  0.001  0.008  0.009
    5  0.000  0.001  0.022  0.023
    6  0.008  0.001  0.007  0.016
    7  0.004  0.000  0.011  0.016
    8  0.008  0.001  0.007  0.016
    9  0.000  0.001  0.003  0.003
   10  0.000  0.000  0.021  0.022
   11  0.000  0.000  0.048  0.048
   12  0.000  0.000  0.012  0.012
   13  0.000  0.000  0.048  0.048
   14  0.000  0.000  0.045  0.046
   15  0.000  0.000  0.023  0.023
   16  0.000  0.000  0.012  0.012
   17  0.000  0.000  0.023  0.023
   18  0.000  0.000  0.033  0.033
   19  0.000  0.000  0.006  0.006
   20  0.001  0.000  0.082  0.083
   21  0.000  0.000  0.048  0.049
   22  0.000  0.000  0.038  0.038
   23  0.000  0.000  0.048  0.049
   24  0.001  0.000  0.024  0.025
   25  0.000  0.000  0.014  0.014
   26  0.000  0.000  0.006  0.006
   27  0.000  0.000  0.038  0.038
   28  0.000  0.000  0.002  0.002
   29  0.003  0.000  0.012  0.014
   30  0.000  0.000  0.009  0.009
   31  0.003  0.000  0.012  0.014
   32  0.002  0.000  0.006  0.008
   33  0.000  0.000  0.009  0.009
   34  0.002  0.000  0.006  0.008
   35  0.000  0.000  0.011  0.011
   36  0.000  0.001  0.064  0.064
   37  0.000  0.007  0.000  0.007
tot    0.036  0.016  0.795  0.846
 
band    20 # energy   -5.10310968 # occ.  2.00000000
 
ion      s      p      d    tot
    1  0.000  0.000  0.015  0.016
    2  0.008  0.000  0.010  0.018
    3  0.004  0.001  0.007  0.011
    4  0.008  0.000  0.010  0.018
    5  0.000  0.001  0.022  0.023
    6  0.001  0.000  0.011  0.012
    7  0.004  0.001  0.007  0.011
    8  0.001  0.000  0.011  0.012
    9  0.000  0.001  0.003  0.003
   10  0.000  0.000  0.009  0.009
   11  0.000  0.000  0.046  0.047
   12  0.000  0.000  0.018  0.019
   13  0.000  0.000  0.046  0.047
   14  0.000  0.000  0.048  0.049
   15  0.000  0.000  0.030  0.030
   16  0.000  0.000  0.018  0.018
   17  0.000  0.000  0.030  0.030
   18  0.000  0.000  0.020  0.020
   19  0.000  0.000  0.012  0.012
   20  0.000  0.000  0.037  0.037
   21  0.000  0.000  0.071  0.071
   22  0.001  0.000  0.029  0.029
   23  0.000  0.000  0.071  0.071
   24  0.000  0.000  0.042  0.042
   25  0.000  0.000  0.003  0.003
   26  0.000  0.000  0.012  0.012
   27  0.001  0.000  0.029  0.029
   28  0.000  0.000  0.002  0.002
   29  0.000  0.000  0.006  0.007
   30  0.003  0.000  0.009  0.012
   31  0.000  0.000  0.006  0.007
   32  0.001  0.000  0.011  0.013
   33  0.003  0.000  0.009  0.012
   34  0.001  0.000  0.011  0.013
   35  0.000  0.000  0.011  0.011
   36  0.000  0.001  0.064  0.064
   37  0.000  0.007  0.000  0.007
tot    0.036  0.016  0.795  0.846
 
band    21 # energy   -5.08552098 # occ.  2.00000000
 
ion      s      p      d    tot
    1  0.000  0.001  0.021  0.022
    2  0.012  0.001  0.015  0.027
    3  0.003  0.001  0.010  0.013
    4  0.012  0.001  0.015  0.027
    5  0.000  0.001  0.007  0.008
    6  0.003  0.000  0.014  0.018
    7  0.003  0.001  0.010  0.013
    8  0.003  0.000  0.014  0.018
    9  0.000  0.000  0.034  0.034
   10  0.001  0.001  0.050  0.051
   11  0.000  0.000  0.012  0.012
   12  0.000  0.000  0.031  0.031
   13  0.000  0.000  0.012  0.012
   14  0.001  0.000  0.014  0.015
   15  0.000  0.000  0.023  0.024
   16  0.000  0.000  0.031  0.031
   17  0.000  0.000  0.023  0.024
   18  0.001  0.000  0.019  0.020
   19  0.000  0.000  0.032  0.033
   20  0.000  0.000  0.025  0.026
   21  0.000  0.000  0.020  0.020
   22  0.000  0.000  0.015  0.015
   23  0.000  0.000  0.020  0.020
   24  0.001  0.000  0.018  0.019
   25  0.001  0.001  0.033  0.035
   26  0.000  0.000  0.032  0.033
   27  0.000  0.000  0.015  0.015
   28  0.000  0.001  0.012  0.013
   29  0.005  0.001  0.012  0.018
   30  0.014  0.001  0.009  0.024
   31  0.005  0.001  0.012  0.018
   32  0.002  0.001  0.013  0.016
   33  0.014  0.001  0.009  0.024
   34  0.002  0.001  0.013  0.016
   35  0.000  0.001  0.007  0.008
   36  0.000  0.000  0.056  0.056