PROCAR new format
# of k-points:   10         # of bands:  252         # of ions:   37

 k-point     1 :    0.00000000 0.00000000 0.00000000     weight = 0.01562500

band     1 # energy   -8.79198200 # occ.  2.00000000
 
ion      s      p      d    tot
    1  0.005  0.000  0.000  0.006
    2  0.005  0.000  0.000  0.006
    3  0.005  0.000  0.000  0.006
    4  0.005  0.000  0.000  0.006
    5  0.005  0.000  0.000  0.006
    6  0.005  0.000  0.000  0.006
    7  0.005  0.000  0.000  0.006
    8  0.005  0.000  0.000  0.006
    9  0.005  0.000  0.000  0.005
   10  0.022  0.000  0.000  0.022
   11  0.023  0.000  0.000  0.023
   12  0.022  0.000  0.000  0.022
   13  0.023  0.000  0.000  0.023
   14  0.023  0.000  0.000  0.023
   15  0.021  0.000  0.000  0.021
   16  0.022  0.000  0.000  0.022
   17  0.021  0.000  0.000  0.021
   18  0.021  0.000  0.000  0.021
   19  0.021  0.000  0.000  0.021
   20  0.029  0.000  0.000  0.030
   21  0.029  0.000  0.000  0.030
   22  0.022  0.000  0.000  0.022
   23  0.029  0.000  0.000  0.030
   24  0.022  0.000  0.000  0.022
   25  0.021  0.000  0.000  0.021
   26  0.021  0.000  0.000  0.021
   27  0.022  0.000  0.000  0.022
   28  0.005  0.000  0.000  0.005
   29  0.006  0.000  0.000  0.007
   30  0.006  0.000  0.000  0.007
   31  0.006  0.000  0.000  0.007
   32  0.006  0.000  0.000  0.007
   33  0.006  0.000  0.000  0.007
   34  0.006  0.000  0.000  0.007
   35  0.005  0.000  0.000  0.005
   36  0.030  0.000  0.007  0.037
   37  0.036  0.001  0.000  0.037
tot    0.573  0.011  0.011  0.595
 
band     2 # energy   -8.20890394 # occ.  2.00000000
 
ion      s      p      d    tot
    1  0.003  0.000  0.000  0.004
    2  0.004  0.000  0.000  0.004
    3  0.004  0.000  0.000  0.004
    4  0.004  0.000  0.000  0.004
    5  0.004  0.000  0.000  0.004
    6  0.004  0.000  0.000  0.004
    7  0.004  0.000  0.000  0.004
    8  0.004  0.000  0.000  0.004
    9  0.004  0.000  0.000  0.004
   10  0.007  0.000  0.001  0.008
   11  0.007  0.000  0.000  0.008
   12  0.007  0.000  0.001  0.008
   13  0.007  0.000  0.000  0.008
   14  0.007  0.000  0.000  0.008
   15  0.009  0.000  0.000  0.009
   16  0.007  0.000  0.001  0.008
   17  0.009  0.000  0.000  0.009
   18  0.009  0.000  0.000  0.009
   19  0.001  0.000  0.000  0.001
   20  0.000  0.001  0.003  0.004
   21  0.000  0.001  0.003  0.004
   22  0.001  0.000  0.000  0.001
   23  0.000  0.001  0.003  0.004
   24  0.001  0.000  0.000  0.001
   25  0.001  0.000  0.000  0.001
   26  0.001  0.000  0.000  0.001
   27  0.001  0.000  0.000  0.001
   28  0.000  0.000  0.000  0.001
   29  0.002  0.000  0.001  0.004
   30  0.002  0.000  0.001  0.004
   31  0.002  0.000  0.001  0.004
   32  0.002  0.000  0.001  0.004
   33  0.002  0.000  0.001  0.004
   34  0.002  0.000  0.001  0.004
   35  0.000  0.000  0.000  0.001
   36  0.081  0.029  0.062  0.171
   37  0.337  0.008  0.000  0.345
tot    0.542  0.047  0.083  0.672
 
band     3 # energy   -7.47146186 # occ.  2.00000000
 
ion      s      p      d    tot
    1  0.016  0.000  0.001  0.017
    2  0.015  0.000  0.001  0.016
    3  0.015  0.000  0.001  0.016
    4  0.015  0.000  0.001  0.016
    5  0.015  0.000  0.001  0.016
    6  0.015  0.000  0.001  0.016
    7  0.015  0.000  0.001  0.016
    8  0.015  0.000  0.001  0.016
    9  0.014  0.000  0.001  0.016
   10  0.008  0.001  0.002  0.011
   11  0.007  0.002  0.002  0.011
   12  0.008  0.001  0.002  0.011
   13  0.007  0.002  0.002  0.011
   14  0.007  0.002  0.002  0.011
   15  0.006  0.002  0.002  0.010
   16  0.008  0.001  0.002  0.011
   17  0.006  0.002  0.002  0.010
   18  0.006  0.002  0.002  0.010
   19  0.015  0.001  0.004  0.020
   20  0.013  0.001  0.006  0.019
   21  0.013  0.001  0.006  0.019
   22  0.018  0.001  0.004  0.023
   23  0.013  0.001  0.006  0.019
   24  0.018  0.001  0.004  0.023
   25  0.015  0.001  0.004  0.020
   26  0.015  0.001  0.004  0.020
   27  0.018  0.001  0.004  0.023
   28  0.013  0.001  0.000  0.014
   29  0.010  0.001  0.001  0.011
   30  0.010  0.001  0.001  0.011
   31  0.010  0.001  0.001  0.011
   32  0.010  0.001  0.001  0.011
   33  0.010  0.001  0.001  0.011
   34  0.010  0.001  0.001  0.011
   35  0.014  0.001  0.000  0.015
   36  0.000  0.010  0.016  0.026
   37  0.058  0.001  0.000  0.058
tot    0.481  0.039  0.093  0.614
 
band     4 # energy   -6.62378709 # occ.  2.00000000
 
ion      s      p      d    tot
    1  0.003  0.000  0.015  0.018
    2  0.011  0.000  0.011  0.022
    3  0.011  0.000  0.011  0.022
    4  0.011  0.000  0.011  0.022
    5  0.007  0.000  0.008  0.016
    6  0.011  0.000  0.011  0.022
    7  0.011  0.000  0.011  0.022
    8  0.011  0.000  0.011  0.022
    9  0.030  0.000  0.006  0.036
   10  0.012  0.001  0.013  0.026
   11  0.010  0.002  0.010  0.022
   12  0.012  0.001  0.013  0.025
   13  0.010  0.002  0.010  0.022
   14  0.010  0.002  0.010  0.021
   15  0.002  0.001  0.012  0.016
   16  0.012  0.001  0.013  0.025
   17  0.002  0.001  0.012  0.016
   18  0.002  0.001  0.013  0.016
   19  0.000  0.001  0.011  0.012
   20  0.016  0.002  0.011  0.029
   21  0.015  0.002  0.011  0.028
   22  0.004  0.001  0.003  0.008
   23  0.015  0.002  0.011  0.028
   24  0.004  0.001  0.003  0.008
   25  0.000  0.001  0.011  0.012
   26  0.000  0.001  0.011  0.012
   27  0.004  0.001  0.003  0.008
   28  0.011  0.000  0.003  0.014
   29  0.009  0.000  0.007  0.017
   30  0.009  0.000  0.007  0.017
   31  0.009  0.000  0.007  0.017
   32  0.009  0.000  0.007  0.017
   33  0.009  0.000  0.007  0.017
   34  0.009  0.000  0.007  0.017
   35  0.021  0.000  0.004  0.026
   36  0.000  0.002  0.008  0.010
   37  0.000  0.000  0.000  0.000
tot    0.329  0.028  0.333  0.690
 
band     5 # energy   -6.60677919 # occ.  2.00000000
 
ion      s      p      d    tot
    1  0.000  0.000  0.008  0.009
    2  0.003  0.001  0.003  0.007
    3  0.001  0.000  0.003  0.004
    4  0.003  0.001  0.003  0.007
    5  0.000  0.001  0.006  0.008
    6  0.006  0.001  0.004  0.011
    7  0.001  0.000  0.003  0.004
    8  0.006  0.001  0.004  0.011
    9  0.000  0.000  0.001  0.001
   10  0.037  0.002  0.004  0.044
   11  0.012  0.003  0.021  0.036
   12  0.010  0.001  0.028  0.038
   13  0.013  0.003  0.021  0.036
   14  0.051  0.001  0.012  0.064
   15  0.000  0.003  0.007  0.009
   16  0.009  0.001  0.028  0.038
   17  0.000  0.003  0.007  0.010
   18  0.001  0.000  0.012  0.013
   19  0.003  0.003  0.006  0.011
   20  0.063  0.001  0.010  0.074
   21  0.016  0.002  0.031  0.049
   22  0.004  0.001  0.020  0.025
   23  0.015  0.002  0.032  0.049
   24  0.015  0.002  0.005  0.022
   25  0.011  0.000  0.013  0.024
   26  0.003  0.003  0.006  0.012
   27  0.004  0.001  0.021  0.025
   28  0.000  0.000  0.001  0.001
   29  0.006  0.001  0.004  0.011
   30  0.002  0.000  0.003  0.005
   31  0.006  0.001  0.004  0.011
   32  0.001  0.000  0.002  0.004
   33  0.002  0.000  0.003  0.005
   34  0.001  0.000  0.002  0.004
   35  0.000  0.000  0.004  0.004
   36  0.000  0.003  0.006  0.009
   37  0.000  0.000  0.000  0.000
tot    0.305  0.044  0.346  0.694
 
band     6 # energy   -6.60675775 # occ.  2.00000000
 
ion      s      p      d    tot
    1  0.000  0.000  0.008  0.009
    2  0.004  0.001  0.004  0.008
    3  0.006  0.001  0.003  0.011
    4  0.004  0.001  0.004  0.008
    5  0.000  0.001  0.006  0.008
    6  0.000  0.000  0.003  0.003
    7  0.006  0.001  0.003  0.010
    8  0.000  0.000  0.003  0.003
    9  0.000  0.000  0.001  0.001
   10  0.000  0.000  0.036  0.036
   11  0.038  0.001  0.015  0.055
   12  0.028  0.002  0.013  0.042
   13  0.038  0.001  0.015  0.054
   14  0.000  0.004  0.024  0.027
   15  0.001  0.001  0.010  0.012
   16  0.028  0.002  0.012  0.042
   17  0.001  0.001  0.010  0.012
   18  0.000  0.003  0.005  0.008
   19  0.008  0.001  0.011  0.020
   20  0.000  0.002  0.038  0.041
   21  0.047  0.002  0.017  0.065
   22  0.011  0.001  0.011  0.023
   23  0.047  0.002  0.017  0.066
   24  0.000  0.000  0.025  0.026
   25  0.000  0.004  0.003  0.007
   26  0.008  0.001  0.011  0.020
   27  0.012  0.001  0.010  0.023
   28  0.000  0.000  0.001  0.001
   29  0.000  0.000  0.002  0.002
   30  0.004  0.001  0.003  0.008
   31  0.000  0.000  0.002  0.002
   32  0.005  0.001  0.004  0.009
   33  0.004  0.001  0.003  0.008
   34  0.005  0.001  0.004  0.009
   35  0.000  0.000  0.004  0.004
   36  0.000  0.003  0.006  0.009
   37  0.000  0.000  0.000  0.000
tot    0.305  0.044  0.346  0.694
 
band     7 # energy   -6.58985549 # occ.  2.00000000
 
ion      s      p      d    tot
    1  0.019  0.000  0.008  0.027
    2  0.010  0.000  0.013  0.023
    3  0.010  0.000  0.013  0.023
    4  0.010  0.000  0.013  0.023
    5  0.014  0.000  0.012  0.026
    6  0.010  0.000  0.013  0.023
    7  0.010  0.000  0.013  0.023
    8  0.010  0.000  0.013  0.023
    9  0.002  0.001  0.015  0.017
   10  0.001  0.000  0.031  0.032
   11  0.001  0.001  0.024  0.026
   12  0.001  0.000  0.031  0.032
   13  0.001  0.001  0.024  0.026
   14  0.001  0.001  0.024  0.026
   15  0.024  0.001  0.015  0.039
   16  0.001  0.000  0.031  0.032
   17  0.024  0.001  0.015  0.039
   18  0.024  0.001  0.014  0.039
   19  0.002  0.000  0.017  0.019
   20  0.015  0.000  0.018  0.032
   21  0.015  0.000  0.017  0.033
   22  0.001  0.001  0.013  0.014
   23  0.015  0.000  0.017  0.033
   24  0.001  0.001  0.012  0.014
   25  0.002  0.000  0.017  0.019
   26  0.002  0.000  0.017  0.019
   27  0.001  0.001  0.013  0.014
   28  0.002  0.000  0.001  0.003
   29  0.002  0.000  0.003  0.005
   30  0.002  0.000  0.003  0.005
   31  0.002  0.000  0.003  0.005
   32  0.002  0.000  0.003  0.005
   33  0.002  0.000  0.003  0.005
   34  0.002  0.000  0.003  0.005
   35  0.006  0.000  0.002  0.008
   36  0.000  0.003  0.003  0.005
   37  0.001  0.000  0.000  0.001
tot    0.245  0.014  0.485  0.743
 
band     8 # energy   -6.56544960 # occ.  2.00000000
 
ion      s      p      d    tot
    1  0.007  0.001  0.000  0.009
    2  0.000  0.001  0.006  0.007
    3  0.000  0.001  0.006  0.007
    4  0.000  0.001  0.006  0.007
    5  0.016  0.002  0.002  0.019
    6  0.000  0.001  0.006  0.007
    7  0.000  0.001  0.006  0.007
    8  0.000  0.001  0.006  0.007
    9  0.001  0.000  0.001  0.002
   10  0.019  0.003  0.004  0.026
   11  0.027  0.001  0.017  0.045
   12  0.019  0.003  0.004  0.026
   13  0.027  0.001  0.017  0.045
   14  0.027  0.001  0.016  0.045
   15  0.001  0.001  0.026  0.027
   16  0.019  0.003  0.004  0.026
   17  0.001  0.001  0.026  0.027
   18  0.001  0.001  0.026  0.027
   19  0.029  0.002  0.005  0.037
   20  0.006  0.003  0.018  0.026
   21  0.006  0.003  0.018  0.026
   22  0.004  0.000  0.027  0.031
   23  0.006  0.003  0.018  0.026
   24  0.004  0.000  0.027  0.031
   25  0.029  0.002  0.005  0.037
   26  0.029  0.002  0.005  0.037
   27  0.004  0.000  0.027  0.031
   28  0.008  0.001  0.002  0.011
   29  0.000  0.000  0.004  0.005
   30  0.000  0.000  0.004  0.005
   31  0.000  0.000  0.004  0.005
   32  0.000  0.000  0.004  0.005
   33  0.000  0.000  0.004  0.005
   34  0.000  0.000  0.004  0.005
   35  0.005  0.000  0.001  0.006
   36  0.002  0.000  0.001  0.003
   37  0.000  0.000  0.000  0.000
tot    0.298  0.041  0.357  0.696
 
band     9 # energy   -6.53215693 # occ.  2.00000000
 
ion      s      p      d    tot
    1  0.000  0.001  0.003  0.004
    2  0.004  0.001  0.003  0.008
    3  0.000  0.000  0.004  0.005
    4  0.005  0.001  0.003  0.009
    5  0.000  0.000  0.005  0.005
    6  0.008  0.001  0.004  0.014
    7  0.001  0.000  0.004  0.005
    8  0.008  0.001  0.004  0.013
    9  0.000  0.001  0.011  0.012
   10  0.000  0.005  0.004  0.008
   11  0.007  0.001  0.012  0.020
   12  0.018  0.001  0.013  0.033
   13  0.007  0.001  0.013  0.021
   14  0.000  0.001  0.027  0.028
   15  0.050  0.001  0.013  0.065
   16  0.019  0.001  0.014  0.035
   17  0.045  0.001  0.016  0.063
   18  0.000  0.001  0.042  0.043
   19  0.031  0.002  0.010  0.043
   20  0.000  0.002  0.011  0.013
   21  0.000  0.001  0.013  0.014
   22  0.025  0.002  0.012  0.039
   23  0.000  0.001  0.013  0.014
   24  0.000  0.004  0.016  0.020
   25  0.000  0.000  0.036  0.036
   26  0.028  0.002  0.012  0.042
   27  0.028  0.001  0.012  0.041
   28  0.000  0.000  0.006  0.006
   29  0.004  0.001  0.002  0.007
   30  0.002  0.000  0.002  0.005
   31  0.004  0.001  0.002  0.007
   32  0.000  0.000  0.001  0.002
   33  0.002  0.000  0.002  0.005
   34  0.000  0.000  0.002  0.002
   35  0.000  0.001  0.004  0.004
   36  0.000  0.000  0.001  0.001
   37  0.000  0.000  0.000  0.000
tot    0.297  0.041  0.354  0.693
 
band    10 # energy   -6.53214966 # occ.  2.00000000
 
ion      s      p      d    tot
    1  0.000  0.001  0.003  0.004
    2  0.005  0.001  0.004  0.010
    3  0.008  0.001  0.004  0.013
    4  0.004  0.001  0.004  0.009
    5  0.000  0.000  0.005  0.005
    6  0.000  0.000  0.003  0.004
    7  0.008  0.001  0.004  0.013
    8  0.001  0.000  0.003  0.005
    9  0.000  0.001  0.011  0.012
   10  0.025  0.000  0.017  0.042
   11  0.002  0.001  0.023  0.026
   12  0.007  0.003  0.008  0.018
   13  0.003  0.001  0.021  0.025
   14  0.010  0.001  0.007  0.018
   15  0.014  0.001  0.034  0.049
   16  0.005  0.004  0.007  0.016
   17  0.018  0.001  0.032  0.051
   18  0.064  0.002  0.006  0.071
   19  0.008  0.001  0.029  0.038
   20  0.000  0.001  0.014  0.015
   21  0.000  0.002  0.012  0.014
   22  0.010  0.003  0.015  0.027
   23  0.000  0.002  0.012  0.013
   24  0.035  0.001  0.011  0.047
   25  0.039  0.002  0.003  0.044
   26  0.011  0.001  0.027  0.038
   27  0.008  0.003  0.015  0.026
   28  0.000  0.000  0.006  0.006
   29  0.000  0.000  0.002  0.002
   30  0.002  0.000  0.002  0.004
   31  0.000  0.000  0.002  0.002
   32  0.004  0.001  0.002  0.007
   33  0.002  0.000  0.002  0.005
   34  0.004  0.001  0.002  0.007
   35  0.000  0.001  0.004  0.004
   36  0.000  0.000  0.001  0.001
   37  0.000  0.000  0.000  0.000
tot    0.297  0.041  0.354  0.693
 
band    11 # energy   -6.51573917 # occ.  2.00000000
 
ion      s      p      d    tot
    1  0.007  0.001  0.000  0.008
    2  0.000  0.000  0.003  0.003
    3  0.000  0.000  0.003  0.003
    4  0.000  0.000  0.003  0.003
    5  0.001  0.000  0.001  0.002
    6  0.000  0.000  0.003  0.003
    7  0.000  0.000  0.003  0.003
    8  0.000  0.000  0.003  0.003
    9  0.004  0.001  0.001  0.005
   10  0.006  0.000  0.014  0.020
   11  0.001  0.001  0.009  0.011
   12  0.006  0.000  0.014  0.020
   13  0.001  0.001  0.009  0.011
   14  0.001  0.001  0.009  0.011
   15  0.013  0.002  0.004  0.018
   16  0.006  0.000  0.014  0.020
   17  0.013  0.002  0.004  0.018
   18  0.013  0.002  0.004  0.018
   19  0.001  0.001  0.015  0.017
   20  0.000  0.000  0.031  0.032
   21  0.000  0.000  0.031  0.032
   22  0.022  0.002  0.010  0.034
   23  0.000  0.000  0.031  0.032
   24  0.022  0.002  0.010  0.034
   25  0.001  0.001  0.015  0.017
   26  0.001  0.001  0.015  0.017
   27  0.022  0.002  0.010  0.034
   28  0.018  0.000  0.015  0.033
   29  0.016  0.000  0.015  0.031
   30  0.016  0.000  0.015  0.031
   31  0.016  0.000  0.015  0.031
   32  0.016  0.000  0.015  0.031
   33  0.016  0.000  0.015  0.031
   34  0.016  0.000  0.015  0.031
   35  0.007  0.001  0.017  0.025
   36  0.011  0.003  0.017  0.030
   37  0.015  0.000  0.000  0.015
tot    0.295  0.025  0.402  0.722
 
band    12 # energy   -6.12427497 # occ.  2.00000000
 
ion      s      p      d    tot
    1  0.000  0.001  0.004  0.004
    2  0.001  0.001  0.005  0.006
    3  0.009  0.001  0.004  0.014
    4  0.001  0.001  0.005  0.006
    5  0.000  0.001  0.010  0.011
    6  0.005  0.001  0.004  0.009
    7  0.009  0.001  0.004  0.014
    8  0.005  0.001  0.004  0.009
    9  0.000  0.000  0.008  0.008
   10  0.000  0.001  0.049  0.050
   11  0.016  0.001  0.021  0.037
   12  0.007  0.001  0.019  0.027
   13  0.016  0.001  0.021  0.037
   14  0.000  0.000  0.049  0.049
   15  0.001  0.000  0.019  0.021
   16  0.007  0.001  0.019  0.027
   17  0.001  0.000  0.019  0.021
   18  0.000  0.001  0.011  0.012
   19  0.004  0.000  0.019  0.024
   20  0.000  0.000  0.084  0.084
   21  0.017  0.001  0.026  0.044
   22  0.003  0.001  0.019  0.023
   23  0.017  0.001  0.026  0.044
   24  0.000  0.001  0.034  0.035
   25  0.000  0.001  0.010  0.011
   26  0.004  0.000  0.019  0.024
   27  0.003  0.001  0.019  0.023
   28  0.000  0.000  0.008  0.008
   29  0.003  0.001  0.005  0.008
   30  0.009  0.001  0.005  0.014
   31  0.003  0.001  0.005  0.008
   32  0.002  0.001  0.004  0.006
   33  0.009  0.001  0.005  0.014
   34  0.002  0.001  0.004  0.006
   35  0.000  0.000  0.003  0.003
   36  0.000  0.004  0.005  0.009
   37  0.000  0.000  0.000  0.000
tot    0.151  0.031  0.572  0.753
 
band    13 # energy   -6.12425160 # occ.  2.00000000
 
ion      s      p      d    tot
    1  0.000  0.001  0.004  0.004
    2  0.009  0.001  0.004  0.014
    3  0.001  0.000  0.004  0.005
    4  0.009  0.001  0.004  0.014
    5  0.000  0.001  0.010  0.011
    6  0.005  0.001  0.005  0.010
    7  0.001  0.000  0.004  0.005
    8  0.005  0.001  0.005  0.010
    9  0.000  0.000  0.008  0.008
   10  0.009  0.002  0.008  0.020
   11  0.005  0.000  0.040  0.045
   12  0.002  0.001  0.039  0.042
   13  0.005  0.000  0.040  0.045
   14  0.021  0.001  0.011  0.033
   15  0.000  0.001  0.014  0.015
   16  0.002  0.001  0.039  0.042
   17  0.000  0.001  0.014  0.015
   18  0.002  0.000  0.021  0.023
   19  0.001  0.001  0.013  0.015
   20  0.022  0.001  0.007  0.031
   21  0.006  0.000  0.065  0.071
   22  0.001  0.001  0.029  0.031
   23  0.006  0.000  0.065  0.071
   24  0.004  0.001  0.014  0.020
   25  0.006  0.000  0.022  0.028
   26  0.001  0.001  0.013  0.015
   27  0.001  0.001  0.029  0.031
   28  0.000  0.000  0.008  0.008
   29  0.006  0.001  0.004  0.011
   30  0.000  0.000  0.004  0.005
   31  0.006  0.001  0.004  0.011
   32  0.007  0.001  0.005  0.013
   33  0.000  0.000  0.004  0.005
   34  0.007  0.001  0.005  0.013
   35  0.000  0.000  0.003  0.003
   36  0.000  0.004  0.005  0.009
   37  0.000  0.000  0.000  0.000
tot    0.151  0.031  0.572  0.753
 
band    14 # energy   -6.11735926 # occ.  2.00000000
 
ion      s      p      d    tot
    1  0.012  0.002  0.002  0.016
    2  0.000  0.001  0.007  0.008
    3  0.000  0.001  0.007  0.008
    4  0.000  0.001  0.007  0.008
    5  0.000  0.000  0.002  0.002
    6  0.000  0.001  0.007  0.008
    7  0.000  0.001  0.007  0.008
    8  0.000  0.001  0.007  0.008
    9  0.015  0.001  0.000  0.017
   10  0.010  0.001  0.014  0.025
   11  0.002  0.000  0.045  0.047
   12  0.010  0.001  0.014  0.025
   13  0.002  0.000  0.045  0.047
   14  0.002  0.000  0.045  0.047
   15  0.003  0.001  0.020  0.024
   16  0.010  0.001  0.014  0.025
   17  0.003  0.001  0.020  0.024
   18  0.003  0.001  0.020  0.024
   19  0.003  0.001  0.013  0.017
   20  0.001  0.000  0.057  0.059
   21  0.001  0.000  0.057  0.059
   22  0.012  0.001  0.018  0.031
   23  0.001  0.000  0.057  0.059
   24  0.012  0.001  0.018  0.031
   25  0.003  0.001  0.013  0.017
   26  0.003  0.001  0.013  0.017
   27  0.012  0.001  0.018  0.031
   28  0.014  0.001  0.000  0.015
   29  0.000  0.000  0.006  0.007
   30  0.000  0.000  0.006  0.007
   31  0.000  0.000  0.006  0.007
   32  0.000  0.000  0.006  0.007
   33  0.000  0.000  0.006  0.007
   34  0.000  0.000  0.006  0.007
   35  0.006  0.001  0.003  0.010
   36  0.000  0.000  0.001  0.001
   37  0.000  0.000  0.000  0.000
tot    0.143  0.026  0.590  0.758
 
band    15 # energy   -6.05664439 # occ.  2.00000000
 
ion      s      p      d    tot
    1  0.009  0.000  0.001  0.010
    2  0.000  0.001  0.009  0.010
    3  0.000  0.001  0.009  0.010
    4  0.000  0.001  0.009  0.010
    5  0.019  0.002  0.001  0.021
    6  0.000  0.001  0.009  0.010
    7  0.000  0.001  0.009  0.010
    8  0.000  0.001  0.009  0.010
    9  0.002  0.001  0.002  0.005
   10  0.000  0.000  0.042  0.042
   11  0.007  0.002  0.010  0.018
   12  0.000  0.000  0.042  0.043
   13  0.007  0.002  0.010  0.018
   14  0.007  0.002  0.010  0.018
   15  0.007  0.001  0.027  0.034
   16  0.000  0.000  0.042  0.043
   17  0.007  0.001  0.027  0.034
   18  0.007  0.001  0.027  0.034
   19  0.010  0.001  0.039  0.049
   20  0.009  0.002  0.007  0.018
   21  0.009  0.002  0.007  0.018
   22  0.000  0.000  0.035  0.036
   23  0.009  0.002  0.007  0.018
   24  0.000  0.000  0.035  0.036
   25  0.010  0.001  0.039  0.050
   26  0.010  0.001  0.039  0.049
   27  0.000  0.000  0.035  0.036
   28  0.001  0.001  0.005  0.007
   29  0.000  0.000  0.007  0.007
   30  0.000  0.000  0.007  0.007
   31  0.000  0.000  0.007  0.007
   32  0.000  0.000  0.007  0.007
   33  0.000  0.000  0.007  0.007
   34  0.000  0.000  0.007  0.007
   35  0.002  0.000  0.000  0.003
   36  0.011  0.007  0.000  0.019
   37  0.006  0.000  0.000  0.006
tot    0.151  0.033  0.580  0.764
 
band    16 # energy   -6.04797288 # occ.  2.00000000
 
ion      s      p      d    tot
    1  0.000  0.001  0.014  0.015
    2  0.010  0.001  0.004  0.015
    3  0.001  0.000  0.005  0.007
    4  0.010  0.001  0.004  0.015
    5  0.000  0.000  0.005  0.006
    6  0.004  0.001  0.005  0.010
    7  0.001  0.000  0.005  0.007
    8  0.004  0.001  0.005  0.010
    9  0.000  0.001  0.006  0.008
   10  0.000  0.001  0.031  0.031
   11  0.000  0.001  0.020  0.021
   12  0.008  0.000  0.022  0.030
   13  0.000  0.001  0.020  0.021
   14  0.000  0.001  0.018  0.019
   15  0.010  0.002  0.020  0.032
   16  0.007  0.000  0.022  0.030
   17  0.010  0.002  0.020  0.032
   18  0.000  0.000  0.062  0.063
   19  0.014  0.001  0.020  0.034
   20  0.000  0.002  0.021  0.022
   21  0.000  0.001  0.024  0.025
   22  0.017  0.001  0.020  0.038
   23  0.000  0.001  0.024  0.025
   24  0.000  0.000  0.030  0.031
   25  0.000  0.000  0.068  0.068
   26  0.014  0.001  0.020  0.034
   27  0.017  0.001  0.020  0.038
   28  0.000  0.001  0.005  0.006
   29  0.006  0.001  0.004  0.010
   30  0.000  0.000  0.005  0.005
   31  0.006  0.001  0.004  0.010
   32  0.004  0.001  0.003  0.008
   33  0.000  0.000  0.005  0.005
   34  0.004  0.001  0.003  0.008
   35  0.000  0.001  0.008  0.009
   36  0.000  0.000  0.002  0.002
   37  0.000  0.000  0.000  0.000
tot    0.148  0.028  0.575  0.750
 
band    17 # energy   -6.04793771 # occ.  2.00000000
 
ion      s      p      d    tot
    1  0.000  0.001  0.014  0.015
    2  0.000  0.000  0.005  0.006
    3  0.008  0.001  0.005  0.014
    4  0.000  0.000  0.005  0.006
    5  0.000  0.000  0.005  0.006
    6  0.006  0.001  0.005  0.011
    7  0.008  0.001  0.005  0.014
    8  0.006  0.001  0.005  0.011
    9  0.000  0.001  0.006  0.008
   10  0.010  0.000  0.019  0.030
   11  0.000  0.001  0.018  0.020
   12  0.002  0.001  0.028  0.031
   13  0.000  0.001  0.018  0.020
   14  0.001  0.001  0.021  0.022
   15  0.003  0.001  0.048  0.052
   16  0.003  0.001  0.028  0.031
   17  0.003  0.001  0.048  0.052
   18  0.014  0.002  0.006  0.022
   19  0.005  0.001  0.052  0.057
   20  0.000  0.000  0.025  0.026
   21  0.000  0.001  0.022  0.023
   22  0.006  0.001  0.027  0.033
   23  0.000  0.001  0.022  0.023
   24  0.023  0.001  0.016  0.040
   25  0.018  0.001  0.004  0.023
   26  0.005  0.001  0.052  0.057
   27  0.006  0.001  0.027  0.033
   28  0.000  0.001  0.005  0.006
   29  0.001  0.000  0.004  0.005
   30  0.007  0.001  0.002  0.010
   31  0.001  0.000  0.004  0.005
   32  0.002  0.001  0.005  0.008
   33  0.007  0.001  0.002  0.010
   34  0.002  0.001  0.005  0.008
   35  0.000  0.001  0.008  0.009
   36  0.000  0.000  0.002  0.002
   37  0.000  0.000  0.000  0.000
tot    0.147  0.028  0.575  0.750
 
band    18 # energy   -5.73962917 # occ.  2.00000000
 
ion      s      p      d    tot
    1  0.000  0.000  0.020  0.020
    2  0.002  0.001  0.008  0.011
    3  0.002  0.000  0.012  0.015
    4  0.002  0.001  0.008  0.011
    5  0.000  0.001  0.018  0.019
    6  0.009  0.001  0.009  0.018
    7  0.002  0.000  0.012  0.015
    8  0.009  0.001  0.009  0.018
    9  0.000  0.001  0.004  0.005
   10  0.000  0.001  0.022  0.022
   11  0.000  0.000  0.056  0.056
   12  0.000  0.000  0.015  0.015
   13  0.000  0.000  0.056  0.056
   14  0.001  0.000  0.052  0.053
   15  0.000  0.000  0.013  0.013
   16  0.000  0.000  0.015  0.015
   17  0.000  0.000  0.013  0.013
   18  0.000  0.000  0.025  0.025
   19  0.000  0.000  0.009  0.010
   20  0.001  0.000  0.081  0.083
   21  0.000  0.000  0.054  0.054
   22  0.000  0.000  0.023  0.024
   23  0.000  0.000  0.054  0.054
   24  0.001  0.000  0.020  0.021
   25  0.001  0.000  0.015  0.015
   26  0.000  0.000  0.009  0.010
   27  0.000  0.000  0.023  0.024
   28  0.000  0.001  0.006  0.007
   29  0.010  0.001  0.015  0.026
   30  0.001  0.000  0.010  0.012
   31  0.010  0.001  0.015  0.026
   32  0.004  0.001  0.007  0.012
   33  0.001  0.000  0.010  0.012
   34  0.004  0.001  0.007  0.012
   35  0.000  0.000  0.021  0.021
   36  0.000  0.004  0.006  0.010
   37  0.000  0.000  0.000  0.000
tot    0.061  0.017  0.752  0.831
 
band    19 # energy   -5.73960473 # occ.  2.00000000
 
ion      s      p      d    tot
    1  0.000  0.000  0.020  0.020
    2  0.006  0.000  0.012  0.018
    3  0.007  0.001  0.007  0.015
    4  0.006  0.000  0.012  0.018
    5  0.000  0.001  0.018  0.019
    6  0.000  0.000  0.010  0.011
    7  0.007  0.001  0.007  0.015
    8  0.000  0.000  0.010  0.011
    9  0.000  0.001  0.004  0.005
   10  0.000  0.000  0.013  0.013
   11  0.000  0.000  0.053  0.054
   12  0.000  0.000  0.019  0.020
   13  0.000  0.000  0.053  0.054
   14  0.000  0.000  0.057  0.057
   15  0.000  0.000  0.021  0.021
   16  0.000  0.000  0.019  0.020
   17  0.000  0.000  0.021  0.021
   18  0.000  0.000  0.009  0.009
   19  0.000  0.000  0.013  0.013
   20  0.000  0.000  0.045  0.045
   21  0.001  0.000  0.072  0.073
   22  0.001  0.000  0.021  0.022
   23  0.001  0.000  0.072  0.073
   24  0.000  0.000  0.024  0.025
   25  0.000  0.000  0.008  0.008
   26  0.000  0.000  0.013  0.013
   27  0.001  0.000  0.021  0.022
   28  0.000  0.001  0.006  0.007
   29  0.000  0.000  0.007  0.007
   30  0.009  0.001  0.011  0.021
   31  0.000  0.000  0.007  0.007
   32  0.006  0.001  0.015  0.021
   33  0.009  0.001  0.011  0.021
   34  0.006  0.001  0.015  0.021
   35  0.000  0.000  0.021  0.021
   36  0.000  0.004  0.006  0.010
   37  0.000  0.000  0.000  0.000
tot    0.061  0.017  0.752  0.831
 
band    20 # energy   -5.73565650 # occ.  2.00000000
 
ion      s      p      d    tot
    1  0.009  0.000  0.007  0.016
    2  0.000  0.001  0.012  0.013
    3  0.000  0.001  0.012  0.013
    4  0.000  0.001  0.012  0.013
    5  0.002  0.001  0.007  0.009
    6  0.000  0.001  0.012  0.013
    7  0.000  0.001  0.012  0.013
    8  0.000  0.001  0.012  0.013
    9  0.018  0.001  0.000  0.020
   10  0.000  0.000  0.025  0.026
   11  0.000  0.000  0.041  0.041
   12  0.000  0.000  0.025  0.026
   13  0.000  0.000  0.041  0.041
   14  0.000  0.000  0.041  0.041
   15  0.000  0.000  0.028  0.028
   16  0.000  0.000  0.025  0.026
   17  0.000  0.000  0.028  0.028
   18  0.000  0.000  0.028  0.029
   19  0.000  0.000  0.022  0.022
   20  0.001  0.000  0.045  0.046
   21  0.001  0.000  0.045  0.046
   22  0.000  0.000  0.027  0.027
   23  0.001  0.000  0.045  0.046
   24  0.000  0.000  0.027  0.027
   25  0.000  0.000  0.022  0.022
   26  0.000  0.000  0.022  0.022
   27  0.000  0.000  0.027  0.027
   28  0.001  0.000  0.003  0.005
   29  0.000  0.001  0.016  0.016
   30  0.000  0.001  0.016  0.016
   31  0.000  0.001  0.016  0.016
   32  0.000  0.001  0.016  0.016
   33  0.000  0.001  0.016  0.016
   34  0.000  0.001  0.016  0.016
   35  0.017  0.001  0.001  0.019
   36  0.005  0.000  0.006  0.012
   37  0.000  0.000  0.000  0.000
tot    0.058  0.016  0.755  0.830
 
band    21 # energy   -5.71221023 # occ.  2.00000000
 
ion      s      p      d    tot
    1  0.006  0.001  0.001  0.008
    2  0.000  0.001  0.019  0.020
    3  0.000  0.001  0.019  0.020
    4  0.000  0.001  0.019  0.020
    5  0.024  0.001  0.005  0.029
    6  0.000  0.001  0.019  0.020
    7  0.000  0.001  0.019  0.020
    8  0.000  0.001  0.019  0.020
    9  0.006  0.000  0.010  0.017
   10  0.000  0.000  0.029  0.029
   11  0.000  0.001  0.024  0.025
   12  0.000  0.000  0.029  0.029
   13  0.000  0.001  0.024  0.025
   14  0.000  0.001  0.024  0.025
   15  0.000  0.000  0.030  0.030
   16  0.000  0.000  0.029  0.029
   17  0.000  0.000  0.030  0.030
   18  0.000  0.000  0.030  0.030
   19  0.000  0.000  0.026  0.026
   20  0.000  0.000  0.021  0.021
   21  0.000  0.000  0.021  0.021
   22  0.001  0.000  0.019  0.020
   23  0.000  0.000  0.021  0.021
   24  0.001  0.000  0.019  0.020
   25  0.000  0.000  0.026  0.026
   26  0.000  0.000  0.026  0.026
   27  0.001  0.000  0.019  0.020
   28  0.020  0.000  0.008  0.028
   29  0.000  0.000  0.023  0.024
   30  0.000  0.000  0.024  0.024
   31  0.000  0.000  0.023  0.024
   32  0.000  0.000  0.023  0.024
   33  0.000  0.000  0.024  0.024
   34  0.000  0.000  0.023  0.024
   35  0.007  0.000  0.007  0.014
   36  0.003  0.001  0.000  0.004