PROCAR new format
# of k-points:   10         # of bands:  252         # of ions:   37

 k-point     1 :    0.00000000 0.00000000 0.00000000     weight = 0.01562500

band     1 # energy  -54.78623088 # occ.  2.00000000
 
ion      s      p      d    tot
    1  0.000  0.000  0.000  0.000
    2  0.000  0.000  0.000  0.000
    3  0.000  0.000  0.000  0.000
    4  0.000  0.000  0.000  0.000
    5  0.000  0.000  0.000  0.000
    6  0.000  0.000  0.000  0.000
    7  0.000  0.000  0.000  0.000
    8  0.000  0.000  0.000  0.000
    9  0.000  0.000  0.000  0.000
   10  0.000  0.000  0.000  0.000
   11  0.000  0.000  0.000  0.000
   12  0.000  0.000  0.000  0.000
   13  0.000  0.000  0.000  0.000
   14  0.000  0.000  0.000  0.000
   15  0.000  0.000  0.000  0.000
   16  0.000  0.000  0.000  0.000
   17  0.000  0.000  0.000  0.000
   18  0.000  0.000  0.000  0.000
   19  0.000  0.000  0.000  0.000
   20  0.000  0.000  0.000  0.000
   21  0.000  0.000  0.000  0.000
   22  0.000  0.000  0.000  0.000
   23  0.000  0.000  0.000  0.000
   24  0.000  0.000  0.000  0.000
   25  0.000  0.000  0.000  0.000
   26  0.000  0.000  0.000  0.000
   27  0.000  0.000  0.000  0.000
   28  0.000  0.000  0.000  0.000
   29  0.000  0.000  0.000  0.000
   30  0.000  0.000  0.000  0.000
   31  0.000  0.000  0.000  0.000
   32  0.000  0.000  0.000  0.000
   33  0.000  0.000  0.000  0.000
   34  0.000  0.000  0.000  0.000
   35  0.000  0.000  0.000  0.000
   36  0.991  0.000  0.000  0.991
   37  0.001  0.001  0.000  0.003
tot    0.993  0.002  0.000  0.994
 
band     2 # energy  -31.52717000 # occ.  2.00000000
 
ion      s      p      d    tot
    1  0.000  0.000  0.000  0.000
    2  0.000  0.000  0.000  0.000
    3  0.000  0.000  0.000  0.000
    4  0.000  0.000  0.000  0.000
    5  0.000  0.000  0.000  0.000
    6  0.000  0.000  0.000  0.000
    7  0.000  0.000  0.000  0.000
    8  0.000  0.000  0.000  0.000
    9  0.000  0.000  0.000  0.000
   10  0.000  0.000  0.000  0.000
   11  0.000  0.000  0.000  0.000
   12  0.000  0.000  0.000  0.000
   13  0.000  0.000  0.000  0.000
   14  0.000  0.000  0.000  0.000
   15  0.000  0.000  0.000  0.000
   16  0.000  0.000  0.000  0.000
   17  0.000  0.000  0.000  0.000
   18  0.000  0.000  0.000  0.000
   19  0.000  0.000  0.000  0.000
   20  0.000  0.000  0.000  0.000
   21  0.000  0.000  0.000  0.000
   22  0.000  0.000  0.000  0.000
   23  0.000  0.000  0.000  0.000
   24  0.000  0.000  0.000  0.000
   25  0.000  0.000  0.000  0.000
   26  0.000  0.000  0.000  0.000
   27  0.000  0.000  0.000  0.000
   28  0.000  0.000  0.000  0.000
   29  0.000  0.000  0.000  0.000
   30  0.000  0.000  0.000  0.000
   31  0.000  0.000  0.000  0.000
   32  0.000  0.000  0.000  0.000
   33  0.000  0.000  0.000  0.000
   34  0.000  0.000  0.000  0.000
   35  0.000  0.000  0.000  0.000
   36  0.000  0.933  0.001  0.934
   37  0.034  0.016  0.000  0.050
tot    0.034  0.949  0.002  0.985
 
band     3 # energy  -30.75680997 # occ.  2.00000000
 
ion      s      p      d    tot
    1  0.000  0.000  0.000  0.000
    2  0.000  0.000  0.000  0.000
    3  0.000  0.000  0.000  0.000
    4  0.000  0.000  0.000  0.000
    5  0.000  0.000  0.000  0.000
    6  0.000  0.000  0.000  0.000
    7  0.000  0.000  0.000  0.000
    8  0.000  0.000  0.000  0.000
    9  0.000  0.000  0.000  0.000
   10  0.000  0.000  0.000  0.000
   11  0.000  0.000  0.000  0.000
   12  0.000  0.000  0.000  0.000
   13  0.000  0.000  0.000  0.000
   14  0.000  0.000  0.000  0.000
   15  0.000  0.000  0.000  0.000
   16  0.000  0.000  0.000  0.000
   17  0.000  0.000  0.000  0.000
   18  0.000  0.000  0.000  0.000
   19  0.000  0.000  0.000  0.000
   20  0.000  0.000  0.000  0.000
   21  0.000  0.000  0.000  0.000
   22  0.000  0.000  0.000  0.000
   23  0.000  0.000  0.000  0.000
   24  0.000  0.000  0.000  0.000
   25  0.000  0.000  0.000  0.000
   26  0.000  0.000  0.000  0.000
   27  0.000  0.000  0.000  0.000
   28  0.000  0.000  0.000  0.000
   29  0.000  0.000  0.000  0.000
   30  0.000  0.000  0.000  0.000
   31  0.000  0.000  0.000  0.000
   32  0.000  0.000  0.000  0.000
   33  0.000  0.000  0.000  0.000
   34  0.000  0.000  0.000  0.000
   35  0.000  0.000  0.000  0.000
   36  0.000  0.973  0.000  0.973
   37  0.000  0.001  0.000  0.001
tot    0.000  0.974  0.000  0.974
 
band     4 # energy  -30.75680302 # occ.  2.00000000
 
ion      s      p      d    tot
    1  0.000  0.000  0.000  0.000
    2  0.000  0.000  0.000  0.000
    3  0.000  0.000  0.000  0.000
    4  0.000  0.000  0.000  0.000
    5  0.000  0.000  0.000  0.000
    6  0.000  0.000  0.000  0.000
    7  0.000  0.000  0.000  0.000
    8  0.000  0.000  0.000  0.000
    9  0.000  0.000  0.000  0.000
   10  0.000  0.000  0.000  0.000
   11  0.000  0.000  0.000  0.000
   12  0.000  0.000  0.000  0.000
   13  0.000  0.000  0.000  0.000
   14  0.000  0.000  0.000  0.000
   15  0.000  0.000  0.000  0.000
   16  0.000  0.000  0.000  0.000
   17  0.000  0.000  0.000  0.000
   18  0.000  0.000  0.000  0.000
   19  0.000  0.000  0.000  0.000
   20  0.000  0.000  0.000  0.000
   21  0.000  0.000  0.000  0.000
   22  0.000  0.000  0.000  0.000
   23  0.000  0.000  0.000  0.000
   24  0.000  0.000  0.000  0.000
   25  0.000  0.000  0.000  0.000
   26  0.000  0.000  0.000  0.000
   27  0.000  0.000  0.000  0.000
   28  0.000  0.000  0.000  0.000
   29  0.000  0.000  0.000  0.000
   30  0.000  0.000  0.000  0.000
   31  0.000  0.000  0.000  0.000
   32  0.000  0.000  0.000  0.000
   33  0.000  0.000  0.000  0.000
   34  0.000  0.000  0.000  0.000
   35  0.000  0.000  0.000  0.000
   36  0.000  0.973  0.000  0.973
   37  0.000  0.001  0.000  0.001
tot    0.000  0.974  0.000  0.974
 
band     5 # energy  -16.84681983 # occ.  2.00000000
 
ion      s      p      d    tot
    1  0.000  0.000  0.000  0.000
    2  0.000  0.000  0.000  0.000
    3  0.000  0.000  0.000  0.000
    4  0.000  0.000  0.000  0.000
    5  0.000  0.000  0.000  0.000
    6  0.000  0.000  0.000  0.000
    7  0.000  0.000  0.000  0.000
    8  0.000  0.000  0.000  0.000
    9  0.000  0.000  0.000  0.000
   10  0.000  0.000  0.000  0.000
   11  0.000  0.000  0.000  0.000
   12  0.000  0.000  0.000  0.000
   13  0.000  0.000  0.000  0.000
   14  0.000  0.000  0.000  0.000
   15  0.000  0.000  0.000  0.000
   16  0.000  0.000  0.000  0.000
   17  0.000  0.000  0.000  0.000
   18  0.000  0.000  0.000  0.000
   19  0.000  0.000  0.000  0.000
   20  0.000  0.000  0.000  0.000
   21  0.000  0.000  0.000  0.000
   22  0.000  0.000  0.000  0.000
   23  0.000  0.000  0.000  0.000
   24  0.000  0.000  0.000  0.000
   25  0.000  0.000  0.000  0.000
   26  0.000  0.000  0.000  0.000
   27  0.000  0.000  0.000  0.000
   28  0.000  0.000  0.000  0.000
   29  0.000  0.000  0.000  0.000
   30  0.000  0.000  0.000  0.000
   31  0.000  0.000  0.000  0.000
   32  0.000  0.000  0.000  0.000
   33  0.000  0.000  0.000  0.000
   34  0.000  0.000  0.000  0.000
   35  0.000  0.000  0.000  0.000
   36  0.015  0.050  0.052  0.117
   37  0.750  0.005  0.000  0.755
tot    0.766  0.056  0.052  0.874
 
band     6 # energy   -6.27305541 # occ.  2.00000000
 
ion      s      p      d    tot
    1  0.006  0.001  0.000  0.006
    2  0.006  0.001  0.000  0.006
    3  0.006  0.001  0.000  0.006
    4  0.006  0.001  0.000  0.006
    5  0.006  0.001  0.000  0.006
    6  0.006  0.001  0.000  0.006
    7  0.006  0.001  0.000  0.006
    8  0.006  0.001  0.000  0.006
    9  0.005  0.001  0.000  0.006
   10  0.023  0.000  0.000  0.023
   11  0.023  0.000  0.000  0.024
   12  0.023  0.000  0.000  0.023
   13  0.023  0.000  0.000  0.024
   14  0.023  0.000  0.000  0.024
   15  0.021  0.000  0.000  0.022
   16  0.023  0.000  0.000  0.023
   17  0.021  0.000  0.000  0.022
   18  0.021  0.000  0.000  0.022
   19  0.023  0.000  0.001  0.024
   20  0.027  0.000  0.001  0.028
   21  0.027  0.000  0.001  0.028
   22  0.022  0.000  0.000  0.023
   23  0.027  0.000  0.001  0.028
   24  0.022  0.000  0.000  0.023
   25  0.023  0.000  0.001  0.024
   26  0.023  0.000  0.001  0.024
   27  0.022  0.000  0.000  0.023
   28  0.006  0.001  0.000  0.006
   29  0.006  0.001  0.000  0.006
   30  0.006  0.001  0.000  0.006
   31  0.006  0.001  0.000  0.006
   32  0.006  0.001  0.000  0.006
   33  0.006  0.001  0.000  0.006
   34  0.006  0.001  0.000  0.006
   35  0.005  0.001  0.000  0.006
   36  0.004  0.001  0.000  0.004
   37  0.000  0.001  0.000  0.001
tot    0.519  0.013  0.007  0.539
 
band     7 # energy   -5.41699445 # occ.  2.00000000
 
ion      s      p      d    tot
    1  0.007  0.000  0.000  0.008
    2  0.008  0.000  0.000  0.009
    3  0.008  0.000  0.000  0.009
    4  0.008  0.000  0.000  0.009
    5  0.008  0.000  0.000  0.009
    6  0.008  0.000  0.000  0.009
    7  0.008  0.000  0.000  0.009
    8  0.008  0.000  0.000  0.009
    9  0.008  0.000  0.000  0.009
   10  0.011  0.001  0.017  0.030
   11  0.012  0.001  0.014  0.027
   12  0.011  0.001  0.017  0.030
   13  0.012  0.001  0.014  0.027
   14  0.012  0.001  0.014  0.027
   15  0.012  0.001  0.012  0.024
   16  0.011  0.001  0.017  0.030
   17  0.012  0.001  0.012  0.024
   18  0.012  0.001  0.012  0.024
   19  0.010  0.001  0.017  0.028
   20  0.014  0.001  0.028  0.043
   21  0.014  0.001  0.028  0.043
   22  0.009  0.001  0.014  0.023
   23  0.014  0.001  0.028  0.043
   24  0.009  0.001  0.014  0.023
   25  0.010  0.001  0.017  0.028
   26  0.010  0.001  0.017  0.028
   27  0.009  0.001  0.014  0.023
   28  0.006  0.000  0.000  0.007
   29  0.006  0.000  0.000  0.006
   30  0.006  0.000  0.000  0.006
   31  0.006  0.000  0.000  0.006
   32  0.005  0.000  0.000  0.006
   33  0.006  0.000  0.000  0.006
   34  0.005  0.000  0.000  0.006
   35  0.005  0.000  0.000  0.005
   36  0.004  0.000  0.000  0.005
   37  0.001  0.002  0.000  0.002
tot    0.324  0.025  0.311  0.660
 
band     8 # energy   -5.17207848 # occ.  2.00000000
 
ion      s      p      d    tot
    1  0.009  0.000  0.006  0.015
    2  0.005  0.000  0.006  0.012
    3  0.005  0.000  0.006  0.012
    4  0.005  0.000  0.006  0.012
    5  0.003  0.000  0.005  0.008
    6  0.005  0.000  0.006  0.012
    7  0.005  0.000  0.006  0.012
    8  0.005  0.000  0.006  0.012
    9  0.005  0.000  0.005  0.010
   10  0.001  0.000  0.016  0.016
   11  0.000  0.000  0.002  0.003
   12  0.001  0.000  0.016  0.016
   13  0.000  0.000  0.002  0.003
   14  0.000  0.000  0.002  0.003
   15  0.000  0.000  0.002  0.002
   16  0.001  0.000  0.016  0.016
   17  0.000  0.000  0.002  0.002
   18  0.000  0.000  0.002  0.002
   19  0.000  0.001  0.021  0.022
   20  0.002  0.000  0.072  0.074
   21  0.002  0.000  0.072  0.074
   22  0.002  0.000  0.005  0.008
   23  0.002  0.000  0.072  0.074
   24  0.002  0.000  0.005  0.008
   25  0.000  0.001  0.021  0.022
   26  0.000  0.001  0.021  0.022
   27  0.002  0.000  0.005  0.008
   28  0.011  0.000  0.010  0.020
   29  0.014  0.000  0.017  0.031
   30  0.014  0.000  0.017  0.031
   31  0.014  0.000  0.017  0.031
   32  0.014  0.000  0.017  0.031
   33  0.014  0.000  0.017  0.031
   34  0.014  0.000  0.017  0.031
   35  0.018  0.000  0.010  0.028
   36  0.002  0.000  0.028  0.030
   37  0.000  0.010  0.000  0.010
tot    0.182  0.019  0.556  0.757
 
band     9 # energy   -5.09962699 # occ.  2.00000000
 
ion      s      p      d    tot
    1  0.000  0.001  0.013  0.013
    2  0.004  0.000  0.008  0.012
    3  0.004  0.000  0.008  0.012
    4  0.004  0.000  0.008  0.012
    5  0.008  0.000  0.005  0.013
    6  0.004  0.000  0.008  0.012
    7  0.004  0.000  0.008  0.012
    8  0.004  0.000  0.008  0.012
    9  0.007  0.000  0.005  0.012
   10  0.005  0.000  0.012  0.017
   11  0.000  0.000  0.027  0.027
   12  0.005  0.000  0.012  0.017
   13  0.000  0.000  0.027  0.027
   14  0.000  0.000  0.027  0.027
   15  0.001  0.000  0.013  0.014
   16  0.005  0.000  0.012  0.017
   17  0.001  0.000  0.013  0.014
   18  0.001  0.000  0.013  0.014
   19  0.000  0.000  0.024  0.024
   20  0.004  0.000  0.100  0.104
   21  0.004  0.000  0.100  0.104
   22  0.011  0.000  0.012  0.023
   23  0.004  0.000  0.100  0.104
   24  0.011  0.000  0.012  0.023
   25  0.000  0.000  0.024  0.024
   26  0.000  0.000  0.024  0.024
   27  0.011  0.000  0.012  0.023
   28  0.001  0.000  0.006  0.007
   29  0.001  0.000  0.005  0.006
   30  0.001  0.000  0.005  0.006
   31  0.001  0.000  0.005  0.006
   32  0.001  0.000  0.005  0.006
   33  0.001  0.000  0.005  0.006
   34  0.001  0.000  0.005  0.006
   35  0.000  0.001  0.008  0.009
   36  0.007  0.001  0.005  0.013
   37  0.001  0.010  0.000  0.011
tot    0.117  0.018  0.680  0.815
 
band    10 # energy   -5.04758074 # occ.  2.00000000
 
ion      s      p      d    tot
    1  0.000  0.000  0.007  0.007
    2  0.001  0.000  0.002  0.002
    3  0.001  0.000  0.002  0.003
    4  0.001  0.000  0.002  0.002
    5  0.000  0.000  0.003  0.003
    6  0.000  0.000  0.002  0.002
    7  0.001  0.000  0.002  0.003
    8  0.000  0.000  0.002  0.002
    9  0.000  0.000  0.001  0.001
   10  0.000  0.001  0.018  0.019
   11  0.001  0.000  0.020  0.021
   12  0.005  0.001  0.016  0.021
   13  0.001  0.000  0.020  0.021
   14  0.000  0.001  0.021  0.022
   15  0.002  0.000  0.008  0.010
   16  0.005  0.001  0.016  0.021
   17  0.002  0.000  0.008  0.010
   18  0.000  0.000  0.007  0.007
   19  0.016  0.001  0.036  0.052
   20  0.000  0.000  0.191  0.191
   21  0.021  0.000  0.054  0.075
   22  0.000  0.001  0.034  0.035
   23  0.021  0.000  0.051  0.072
   24  0.000  0.001  0.041  0.042
   25  0.000  0.001  0.023  0.024
   26  0.015  0.001  0.036  0.052
   27  0.000  0.001  0.034  0.035
   28  0.000  0.000  0.005  0.005
   29  0.000  0.000  0.008  0.008
   30  0.000  0.000  0.005  0.006
   31  0.000  0.000  0.008  0.008
   32  0.001  0.001  0.006  0.007
   33  0.000  0.000  0.005  0.006
   34  0.001  0.001  0.006  0.007
   35  0.000  0.000  0.000  0.001
   36  0.000  0.000  0.009  0.009
   37  0.000  0.004  0.000  0.004
tot    0.093  0.016  0.705  0.815
 
band    11 # energy   -5.04753815 # occ.  2.00000000
 
ion      s      p      d    tot
    1  0.000  0.000  0.007  0.007
    2  0.000  0.000  0.002  0.002
    3  0.000  0.000  0.002  0.002
    4  0.000  0.000  0.002  0.002
    5  0.000  0.000  0.003  0.003
    6  0.001  0.000  0.002  0.003
    7  0.000  0.000  0.002  0.002
    8  0.001  0.000  0.002  0.003
    9  0.000  0.000  0.001  0.001
   10  0.007  0.001  0.015  0.022
   11  0.000  0.000  0.021  0.022
   12  0.002  0.001  0.017  0.020
   13  0.000  0.000  0.021  0.021
   14  0.001  0.000  0.019  0.020
   15  0.001  0.000  0.007  0.008
   16  0.002  0.001  0.017  0.020
   17  0.001  0.000  0.007  0.008
   18  0.003  0.001  0.008  0.011
   19  0.005  0.001  0.027  0.033
   20  0.028  0.000  0.006  0.034
   21  0.007  0.000  0.143  0.150
   22  0.000  0.001  0.038  0.039
   23  0.007  0.000  0.146  0.153
   24  0.000  0.000  0.032  0.032
   25  0.021  0.000  0.040  0.061
   26  0.005  0.001  0.027  0.034
   27  0.000  0.001  0.039  0.040
   28  0.000  0.000  0.005  0.005
   29  0.001  0.001  0.005  0.006
   30  0.000  0.000  0.008  0.008
   31  0.001  0.000  0.005  0.006
   32  0.000  0.000  0.007  0.007
   33  0.000  0.000  0.008  0.008
   34  0.000  0.000  0.007  0.007
   35  0.000  0.000  0.000  0.001
   36  0.000  0.000  0.009  0.009
   37  0.000  0.004  0.000  0.004
tot    0.093  0.016  0.705  0.815
 
band    12 # energy   -4.99844941 # occ.  2.00000000
 
ion      s      p      d    tot
    1  0.000  0.000  0.004  0.004
    2  0.001  0.001  0.006  0.008
    3  0.001  0.000  0.003  0.004
    4  0.001  0.001  0.007  0.008
    5  0.000  0.000  0.008  0.009
    6  0.000  0.000  0.004  0.004
    7  0.001  0.000  0.002  0.003
    8  0.000  0.000  0.003  0.004
    9  0.000  0.000  0.001  0.001
   10  0.000  0.000  0.091  0.092
   11  0.024  0.001  0.031  0.056
   12  0.005  0.001  0.038  0.044
   13  0.022  0.001  0.036  0.059
   14  0.000  0.001  0.086  0.087
   15  0.005  0.000  0.029  0.035
   16  0.006  0.001  0.032  0.039
   17  0.005  0.001  0.027  0.032
   18  0.000  0.002  0.006  0.008
   19  0.000  0.000  0.017  0.018
   20  0.000  0.001  0.029  0.030
   21  0.008  0.001  0.042  0.051
   22  0.008  0.001  0.014  0.023
   23  0.009  0.001  0.043  0.053
   24  0.000  0.000  0.027  0.028
   25  0.000  0.000  0.029  0.029
   26  0.000  0.000  0.018  0.019
   27  0.009  0.001  0.012  0.022
   28  0.000  0.000  0.001  0.001
   29  0.000  0.000  0.003  0.003
   30  0.001  0.000  0.004  0.005
   31  0.000  0.000  0.003  0.003
   32  0.001  0.000  0.005  0.007
   33  0.001  0.000  0.004  0.006
   34  0.002  0.000  0.005  0.007
   35  0.000  0.000  0.006  0.006
   36  0.000  0.000  0.003  0.003
   37  0.000  0.000  0.000  0.000
tot    0.112  0.015  0.682  0.809
 
band    13 # energy   -4.99844732 # occ.  2.00000000
 
ion      s      p      d    tot
    1  0.000  0.000  0.004  0.004
    2  0.000  0.000  0.002  0.002
    3  0.001  0.000  0.006  0.007
    4  0.000  0.000  0.002  0.002
    5  0.000  0.000  0.008  0.009
    6  0.001  0.001  0.005  0.006
    7  0.001  0.000  0.006  0.007
    8  0.001  0.001  0.005  0.007
    9  0.000  0.000  0.001  0.001
   10  0.007  0.001  0.017  0.025
   11  0.007  0.001  0.071  0.079
   12  0.002  0.000  0.070  0.072
   13  0.009  0.001  0.066  0.076
   14  0.031  0.001  0.015  0.047
   15  0.001  0.001  0.012  0.015
   16  0.002  0.000  0.075  0.077
   17  0.002  0.001  0.014  0.018
   18  0.007  0.000  0.035  0.042
   19  0.000  0.000  0.026  0.026
   20  0.011  0.001  0.048  0.060
   21  0.003  0.001  0.034  0.038
   22  0.003  0.000  0.022  0.026
   23  0.002  0.001  0.033  0.036
   24  0.012  0.001  0.008  0.021
   25  0.001  0.000  0.014  0.015
   26  0.000  0.000  0.025  0.025
   27  0.003  0.000  0.023  0.026
   28  0.000  0.000  0.001  0.001
   29  0.001  0.000  0.005  0.007
   30  0.001  0.000  0.004  0.005
   31  0.001  0.000  0.005  0.007
   32  0.000  0.000  0.003  0.004
   33  0.001  0.000  0.004  0.004
   34  0.000  0.000  0.003  0.003
   35  0.000  0.000  0.006  0.006
   36  0.000  0.000  0.003  0.003
   37  0.000  0.000  0.000  0.000
tot    0.112  0.015  0.682  0.809
 
band    14 # energy   -4.99530576 # occ.  2.00000000
 
ion      s      p      d    tot
    1  0.011  0.001  0.000  0.012
    2  0.003  0.000  0.011  0.014
    3  0.003  0.000  0.011  0.014
    4  0.003  0.000  0.011  0.014
    5  0.002  0.000  0.025  0.027
    6  0.003  0.000  0.011  0.014
    7  0.003  0.000  0.011  0.014
    8  0.003  0.000  0.011  0.014
    9  0.001  0.000  0.007  0.008
   10  0.005  0.000  0.025  0.030
   11  0.006  0.000  0.072  0.078
   12  0.005  0.000  0.025  0.030
   13  0.006  0.000  0.072  0.078
   14  0.006  0.000  0.073  0.079
   15  0.005  0.000  0.024  0.029
   16  0.005  0.000  0.025  0.030
   17  0.005  0.000  0.024  0.029
   18  0.005  0.000  0.024  0.029
   19  0.000  0.000  0.011  0.011
   20  0.000  0.001  0.053  0.054
   21  0.000  0.001  0.053  0.054
   22  0.000  0.000  0.007  0.007
   23  0.000  0.001  0.053  0.054
   24  0.000  0.000  0.007  0.007
   25  0.000  0.000  0.011  0.011
   26  0.000  0.000  0.011  0.011
   27  0.000  0.000  0.007  0.007
   28  0.000  0.000  0.000  0.000
   29  0.001  0.000  0.008  0.009
   30  0.001  0.000  0.009  0.009
   31  0.001  0.000  0.008  0.009
   32  0.001  0.000  0.008  0.009
   33  0.001  0.000  0.009  0.009
   34  0.001  0.000  0.008  0.009
   35  0.000  0.000  0.001  0.001
   36  0.004  0.000  0.001  0.005
   37  0.000  0.000  0.000  0.000
tot    0.086  0.009  0.727  0.823
 
band    15 # energy   -4.97910333 # occ.  2.00000000
 
ion      s      p      d    tot
    1  0.002  0.000  0.000  0.002
    2  0.002  0.000  0.009  0.011
    3  0.002  0.000  0.009  0.011
    4  0.002  0.000  0.009  0.011
    5  0.009  0.001  0.002  0.011
    6  0.002  0.000  0.009  0.011
    7  0.002  0.000  0.009  0.011
    8  0.002  0.000  0.009  0.011
    9  0.000  0.001  0.017  0.018
   10  0.003  0.001  0.030  0.034
   11  0.009  0.001  0.014  0.024
   12  0.003  0.001  0.030  0.034
   13  0.009  0.001  0.014  0.024
   14  0.009  0.001  0.014  0.024
   15  0.008  0.000  0.043  0.051
   16  0.003  0.001  0.030  0.034
   17  0.008  0.000  0.043  0.051
   18  0.008  0.000  0.043  0.051
   19  0.012  0.000  0.025  0.037
   20  0.007  0.001  0.014  0.022
   21  0.007  0.001  0.014  0.022
   22  0.000  0.000  0.033  0.033
   23  0.007  0.001  0.014  0.022
   24  0.000  0.000  0.032  0.033
   25  0.012  0.000  0.025  0.037
   26  0.012  0.000  0.025  0.037
   27  0.000  0.000  0.033  0.033
   28  0.003  0.001  0.006  0.010
   29  0.001  0.000  0.011  0.011
   30  0.001  0.000  0.011  0.011
   31  0.001  0.000  0.011  0.011
   32  0.001  0.000  0.011  0.011
   33  0.001  0.000  0.011  0.011
   34  0.001  0.000  0.011  0.011
   35  0.002  0.000  0.000  0.002
   36  0.002  0.000  0.001  0.004
   37  0.000  0.000  0.000  0.000
tot    0.149  0.017  0.621  0.787
 
band    16 # energy   -4.96998618 # occ.  2.00000000
 
ion      s      p      d    tot
    1  0.003  0.000  0.024  0.028
    2  0.005  0.000  0.015  0.020
    3  0.005  0.000  0.015  0.020
    4  0.005  0.000  0.015  0.020
    5  0.002  0.000  0.006  0.008
    6  0.005  0.000  0.015  0.020
    7  0.005  0.000  0.015  0.020
    8  0.005  0.000  0.015  0.020
    9  0.014  0.000  0.011  0.025
   10  0.002  0.000  0.024  0.027
   11  0.002  0.000  0.013  0.016
   12  0.002  0.000  0.024  0.027
   13  0.002  0.000  0.013  0.016
   14  0.002  0.000  0.013  0.016
   15  0.000  0.000  0.013  0.013
   16  0.002  0.000  0.024  0.027
   17  0.000  0.000  0.013  0.013
   18  0.000  0.000  0.012  0.013
   19  0.001  0.001  0.006  0.007
   20  0.003  0.000  0.028  0.031
   21  0.003  0.000  0.028  0.031
   22  0.004  0.000  0.037  0.041
   23  0.003  0.000  0.028  0.031
   24  0.004  0.000  0.037  0.041
   25  0.001  0.001  0.006  0.007
   26  0.001  0.001  0.006  0.007
   27  0.004  0.000  0.037  0.041
   28  0.016  0.000  0.008  0.024
   29  0.006  0.000  0.019  0.024
   30  0.006  0.000  0.019  0.024
   31  0.006  0.000  0.019  0.024
   32  0.006  0.000  0.019  0.024
   33  0.006  0.000  0.019  0.024
   34  0.006  0.000  0.019  0.024
   35  0.004  0.000  0.030  0.034
   36  0.000  0.000  0.003  0.003
   37  0.000  0.001  0.000  0.001
tot    0.140  0.009  0.645  0.795
 
band    17 # energy   -4.95236666 # occ.  2.00000000
 
ion      s      p      d    tot
    1  0.000  0.001  0.008  0.008
    2  0.004  0.001  0.006  0.011
    3  0.003  0.000  0.004  0.008
    4  0.004  0.001  0.006  0.011
    5  0.000  0.000  0.009  0.009
    6  0.000  0.000  0.007  0.008
    7  0.002  0.000  0.005  0.007
    8  0.000  0.000  0.007  0.007
    9  0.000  0.000  0.011  0.011
   10  0.018  0.000  0.012  0.029
   11  0.000  0.000  0.013  0.014
   12  0.005  0.000  0.033  0.039
   13  0.000  0.000  0.015  0.015
   14  0.001  0.000  0.024  0.025
   15  0.002  0.000  0.044  0.046
   16  0.004  0.000  0.036  0.040
   17  0.003  0.000  0.040  0.043
   18  0.010  0.000  0.014  0.024
   19  0.002  0.000  0.064  0.066
   20  0.001  0.000  0.047  0.049
   21  0.000  0.001  0.026  0.027
   22  0.005  0.000  0.044  0.050
   23  0.000  0.001  0.024  0.025
   24  0.018  0.000  0.011  0.029
   25  0.009  0.000  0.011  0.020
   26  0.003  0.000  0.058  0.061
   27  0.004  0.000  0.048  0.052
   28  0.000  0.000  0.011  0.011
   29  0.000  0.000  0.009  0.010
   30  0.002  0.000  0.004  0.006
   31  0.001  0.000  0.009  0.011
   32  0.004  0.001  0.008  0.013
   33  0.002  0.000  0.004  0.007
   34  0.004  0.001  0.007  0.012
   35  0.000  0.000  0.005  0.006
   36  0.000  0.000  0.002  0.002
   37  0.000  0.000  0.000  0.000
tot    0.112  0.013  0.687  0.812
 
band    18 # energy   -4.95235768 # occ.  2.00000000
 
ion      s      p      d    tot
    1  0.000  0.001  0.008  0.008
    2  0.000  0.000  0.006  0.006
    3  0.002  0.001  0.007  0.010
    4  0.001  0.000  0.006  0.006
    5  0.000  0.000  0.009  0.009
    6  0.004  0.001  0.004  0.009
    7  0.002  0.001  0.007  0.010
    8  0.004  0.001  0.005  0.010
    9  0.000  0.000  0.011  0.011
   10  0.000  0.000  0.042  0.043
   11  0.001  0.000  0.021  0.022
   12  0.013  0.000  0.021  0.033
   13  0.001  0.000  0.020  0.021
   14  0.000  0.000  0.011  0.011
   15  0.008  0.000  0.022  0.029
   16  0.014  0.000  0.018  0.032
   17  0.007  0.000  0.025  0.032
   18  0.000  0.000  0.052  0.052
   19  0.007  0.000  0.025  0.032
   20  0.000  0.001  0.018  0.018
   21  0.001  0.000  0.038  0.040
   22  0.013  0.000  0.025  0.038
   23  0.001  0.000  0.041  0.042
   24  0.000  0.000  0.058  0.058
   25  0.000  0.000  0.077  0.077
   26  0.006  0.000  0.031  0.037
   27  0.015  0.000  0.021  0.035
   28  0.000  0.000  0.011  0.011
   29  0.004  0.001  0.005  0.010
   30  0.003  0.001  0.010  0.013
   31  0.004  0.001  0.004  0.009
   32  0.000  0.000  0.006  0.007
   33  0.002  0.001  0.010  0.013
   34  0.000  0.000  0.007  0.007
   35  0.000  0.000  0.005  0.006
   36  0.000  0.000  0.002  0.002
   37  0.000  0.000  0.000  0.000
tot    0.112  0.013  0.687  0.812
 
band    19 # energy   -4.94527533 # occ.  2.00000000
 
ion      s      p      d    tot
    1  0.003  0.000  0.007  0.010
    2  0.000  0.000  0.007  0.007
    3  0.000  0.000  0.007  0.007
    4  0.000  0.000  0.007  0.007
    5  0.000  0.000  0.002  0.002
    6  0.000  0.000  0.007  0.007
    7  0.000  0.000  0.007  0.007
    8  0.000  0.000  0.007  0.007
    9  0.000  0.000  0.003  0.003
   10  0.000  0.000  0.051  0.052
   11  0.003  0.000  0.007  0.011
   12  0.000  0.000  0.051  0.051
   13  0.003  0.000  0.007  0.011
   14  0.003  0.000  0.008  0.011
   15  0.003  0.000  0.043  0.046
   16  0.000  0.000  0.051  0.051
   17  0.003  0.000  0.043  0.046
   18  0.003  0.000  0.043  0.046
   19  0.005  0.000  0.049  0.054
   20  0.000  0.001  0.013  0.014
   21  0.000  0.001  0.013  0.014
   22  0.000  0.000  0.052  0.053
   23  0.000  0.001  0.013  0.014
   24  0.000  0.000  0.052  0.053
   25  0.005  0.000  0.049  0.054
   26  0.005  0.000  0.049  0.054
   27  0.000  0.000  0.052  0.053
   28  0.001  0.000  0.018  0.019
   29  0.001  0.000  0.012  0.012
   30  0.000  0.000  0.012  0.012
   31  0.001  0.000  0.012  0.012
   32  0.001  0.000  0.012  0.012
   33  0.000  0.000  0.012  0.012
   34  0.001  0.000  0.012  0.012
   35  0.000  0.000  0.001  0.001
   36  0.002  0.000  0.000  0.002
   37  0.000  0.001  0.000  0.001
tot    0.048  0.009  0.787  0.844
 
band    20 # energy   -4.93741760 # occ.  2.00000000
 
ion      s      p      d    tot
    1  0.000  0.000  0.008  0.008
    2  0.000  0.000  0.009  0.009
    3  0.001  0.000  0.006  0.008
    4  0.000  0.000  0.009  0.009
    5  0.000  0.000  0.002  0.002
    6  0.001  0.000  0.005  0.006
    7  0.001  0.000  0.006  0.007
    8  0.001  0.000  0.004  0.006
    9  0.000  0.000  0.013  0.013
   10  0.005  0.000  0.047  0.052
   11  0.000  0.000  0.055  0.056
   12  0.001  0.000  0.019  0.021
   13  0.001  0.000  0.054  0.055
   14  0.002  0.000  0.019  0.021
   15  0.003  0.000  0.082  0.085
   16  0.001  0.000  0.018  0.020
   17  0.003  0.000  0.080  0.083
   18  0.013  0.000  0.016  0.029
   19  0.000  0.000  0.051  0.051
   20  0.000  0.000  0.037  0.037
   21  0.000  0.000  0.016  0.016
   22  0.001  0.000  0.036  0.036
   23  0.000  0.000  0.015  0.015
   24  0.002  0.000  0.033  0.035
   25  0.002  0.000  0.010  0.012
   26  0.000  0.000  0.049  0.050
   27  0.000  0.000  0.036  0.037
   28  0.000  0.000  0.010  0.010
   29  0.002  0.000  0.007  0.009
   30  0.001  0.000  0.005  0.005
   31  0.002  0.000  0.007  0.009
   32  0.000  0.000  0.007  0.008
   33  0.001  0.000  0.005  0.005
   34  0.000  0.000  0.007  0.007
   35  0.000  0.000  0.014  0.014
   36  0.000  0.000  0.000  0.000
   37  0.000  0.000  0.000  0.000
tot    0.044  0.007  0.797  0.848
 
band    21 # energy   -4.93737274 # occ.  2.00000000
 
ion      s      p      d    tot
    1  0.000  0.000  0.008  0.008
    2  0.001  0.000  0.004  0.006
    3  0.001  0.000  0.007  0.008
    4  0.001  0.000  0.004  0.006
    5  0.000  0.000  0.002  0.002
    6  0.000  0.000  0.008  0.009
    7  0.001  0.000  0.007  0.008
    8  0.000  0.000  0.009  0.009
    9  0.000  0.000  0.013  0.014
   10  0.000  0.001  0.009  0.009
   11  0.002  0.000  0.030  0.032
   12  0.003  0.000  0.037  0.041
   13  0.002  0.000  0.031  0.033
   14  0.000  0.000  0.067  0.067
   15  0.010  0.000  0.037  0.046
   16  0.004  0.000  0.038  0.042
   17  0.009  0.000  0.039  0.049
   18  0.000  0.000  0.102  0.102
   19  0.001  0.000  0.023  0.024
   20  0.000  0.000  0.008  0.008
   21  0.000  0.000  0.030  0.030
   22  0.001  0.000  0.034  0.036
   23  0.000  0.000  0.031  0.031
   24  0.000  0.000  0.037  0.037
   25  0.000  0.000  0.063  0.063
   26  0.001  0.000  0.024  0.026
   27  0.001  0.000  0.034  0.036
   28  0.000  0.000  0.010  0.010
   29  0.000  0.000  0.006  0.006
   30  0.001  0.000  0.008  0.009
   31  0.000  0.000  0.006  0.006
   32  0.001  0.000  0.005  0.007
   33  0.001  0.000  0.008  0.009
   34  0.001  0.000  0.005  0.007
   35  0.000  0.000  0.014  0.014
   36  0.000  0.000  0.000  0.000