PROCAR new format
# of k-points:   10         # of bands:  252         # of ions:   36

 k-point     1 :    0.00000000 0.00000000 0.00000000     weight = 0.01562500

band     1 # energy   -8.71272732 # occ.  2.00000000
 
ion      s      p      d    tot
    1  0.007  0.001  0.000  0.008
    2  0.007  0.001  0.000  0.007
    3  0.007  0.001  0.000  0.007
    4  0.007  0.001  0.000  0.007
    5  0.007  0.001  0.000  0.008
    6  0.007  0.001  0.000  0.007
    7  0.007  0.001  0.000  0.007
    8  0.007  0.001  0.000  0.007
    9  0.007  0.001  0.000  0.007
   10  0.025  0.000  0.000  0.025
   11  0.025  0.000  0.000  0.025
   12  0.025  0.000  0.000  0.025
   13  0.025  0.000  0.000  0.025
   14  0.025  0.000  0.000  0.025
   15  0.025  0.000  0.000  0.025
   16  0.025  0.000  0.000  0.025
   17  0.025  0.000  0.000  0.025
   18  0.025  0.000  0.000  0.025
   19  0.025  0.000  0.000  0.025
   20  0.024  0.000  0.000  0.025
   21  0.024  0.000  0.000  0.025
   22  0.024  0.000  0.000  0.024
   23  0.024  0.000  0.000  0.025
   24  0.024  0.000  0.000  0.024
   25  0.025  0.000  0.000  0.025
   26  0.025  0.000  0.000  0.025
   27  0.024  0.000  0.000  0.024
   28  0.007  0.001  0.000  0.008
   29  0.006  0.001  0.000  0.007
   30  0.006  0.001  0.000  0.007
   31  0.006  0.001  0.000  0.007
   32  0.006  0.001  0.000  0.007
   33  0.006  0.001  0.000  0.007
   34  0.006  0.001  0.000  0.007
   35  0.007  0.001  0.000  0.007
   36  0.008  0.001  0.000  0.010
tot    0.565  0.017  0.001  0.583
 
band     2 # energy   -7.40926248 # occ.  2.00000000
 
ion      s      p      d    tot
    1  0.018  0.001  0.001  0.019
    2  0.018  0.001  0.001  0.019
    3  0.018  0.001  0.001  0.019
    4  0.018  0.001  0.001  0.019
    5  0.018  0.001  0.001  0.019
    6  0.018  0.001  0.001  0.019
    7  0.018  0.001  0.001  0.019
    8  0.018  0.001  0.001  0.019
    9  0.018  0.001  0.001  0.019
   10  0.010  0.002  0.001  0.013
   11  0.010  0.002  0.001  0.013
   12  0.010  0.002  0.001  0.013
   13  0.010  0.002  0.001  0.013
   14  0.010  0.002  0.001  0.013
   15  0.009  0.002  0.001  0.012
   16  0.010  0.002  0.001  0.013
   17  0.009  0.002  0.001  0.012
   18  0.009  0.002  0.001  0.012
   19  0.011  0.002  0.001  0.014
   20  0.009  0.002  0.001  0.012
   21  0.009  0.002  0.001  0.012
   22  0.011  0.002  0.001  0.014
   23  0.009  0.002  0.001  0.012
   24  0.011  0.002  0.001  0.014
   25  0.011  0.002  0.001  0.014
   26  0.011  0.002  0.001  0.014
   27  0.011  0.002  0.001  0.014
   28  0.019  0.001  0.001  0.021
   29  0.018  0.001  0.001  0.020
   30  0.018  0.001  0.001  0.020
   31  0.018  0.001  0.001  0.020
   32  0.018  0.001  0.001  0.020
   33  0.018  0.001  0.001  0.020
   34  0.018  0.001  0.001  0.020
   35  0.019  0.001  0.001  0.020
   36  0.019  0.001  0.001  0.021
tot    0.511  0.055  0.020  0.585
 
band     3 # energy   -5.80028356 # occ.  2.00000000
 
ion      s      p      d    tot
    1  0.017  0.000  0.006  0.022
    2  0.015  0.000  0.006  0.021
    3  0.015  0.000  0.006  0.021
    4  0.015  0.000  0.006  0.021
    5  0.006  0.000  0.007  0.013
    6  0.015  0.000  0.006  0.021
    7  0.015  0.000  0.006  0.021
    8  0.015  0.000  0.006  0.021
    9  0.025  0.000  0.004  0.029
   10  0.003  0.003  0.003  0.009
   11  0.013  0.005  0.001  0.019
   12  0.003  0.003  0.003  0.009
   13  0.013  0.005  0.001  0.019
   14  0.013  0.005  0.001  0.019
   15  0.000  0.003  0.004  0.007
   16  0.003  0.003  0.003  0.009
   17  0.000  0.003  0.004  0.007
   18  0.000  0.003  0.004  0.007
   19  0.001  0.003  0.005  0.009
   20  0.017  0.004  0.002  0.024
   21  0.017  0.004  0.002  0.024
   22  0.000  0.004  0.003  0.008
   23  0.017  0.004  0.002  0.024
   24  0.000  0.004  0.003  0.008
   25  0.001  0.003  0.005  0.009
   26  0.001  0.003  0.005  0.009
   27  0.000  0.004  0.003  0.008
   28  0.021  0.000  0.005  0.026
   29  0.016  0.000  0.007  0.023
   30  0.016  0.000  0.007  0.023
   31  0.016  0.000  0.007  0.023
   32  0.016  0.000  0.007  0.023
   33  0.016  0.000  0.007  0.023
   34  0.016  0.000  0.007  0.023
   35  0.026  0.000  0.005  0.032
   36  0.004  0.002  0.009  0.015
tot    0.384  0.072  0.172  0.627
 
band     4 # energy   -5.73604889 # occ.  2.00000000
 
ion      s      p      d    tot
    1  0.000  0.003  0.005  0.008
    2  0.010  0.002  0.002  0.014
    3  0.002  0.001  0.002  0.006
    4  0.010  0.002  0.002  0.014
    5  0.000  0.002  0.003  0.005
    6  0.002  0.001  0.002  0.006
    7  0.002  0.001  0.002  0.005
    8  0.002  0.001  0.002  0.006
    9  0.000  0.000  0.003  0.003
   10  0.061  0.004  0.004  0.069
   11  0.005  0.010  0.003  0.019
   12  0.015  0.003  0.012  0.030
   13  0.006  0.010  0.003  0.019
   14  0.022  0.000  0.007  0.029
   15  0.002  0.004  0.008  0.015
   16  0.015  0.003  0.012  0.030
   17  0.002  0.004  0.008  0.015
   18  0.009  0.003  0.003  0.015
   19  0.008  0.010  0.004  0.022
   20  0.060  0.005  0.004  0.069
   21  0.015  0.002  0.015  0.032
   22  0.001  0.006  0.007  0.013
   23  0.015  0.002  0.015  0.032
   24  0.003  0.002  0.004  0.009
   25  0.034  0.001  0.007  0.041
   26  0.008  0.010  0.004  0.023
   27  0.001  0.006  0.007  0.013
   28  0.000  0.003  0.004  0.007
   29  0.010  0.003  0.003  0.016
   30  0.005  0.002  0.003  0.009
   31  0.010  0.003  0.003  0.016
   32  0.001  0.001  0.003  0.005
   33  0.005  0.002  0.003  0.009
   34  0.001  0.001  0.003  0.005
   35  0.000  0.000  0.003  0.003
   36  0.000  0.005  0.007  0.011
tot    0.345  0.117  0.181  0.643
 
band     5 # energy   -5.73601190 # occ.  2.00000000
 
ion      s      p      d    tot
    1  0.000  0.003  0.005  0.008
    2  0.000  0.001  0.002  0.003
    3  0.007  0.002  0.002  0.012
    4  0.000  0.001  0.002  0.003
    5  0.000  0.002  0.003  0.005
    6  0.007  0.002  0.002  0.011
    7  0.007  0.002  0.002  0.012
    8  0.007  0.002  0.002  0.011
    9  0.000  0.000  0.003  0.003
   10  0.000  0.002  0.015  0.017
   11  0.016  0.003  0.006  0.025
   12  0.045  0.004  0.007  0.056
   13  0.016  0.004  0.006  0.025
   14  0.000  0.013  0.002  0.016
   15  0.007  0.003  0.005  0.015
   16  0.046  0.004  0.007  0.056
   17  0.007  0.003  0.005  0.015
   18  0.000  0.004  0.010  0.014
   19  0.025  0.004  0.006  0.035
   20  0.000  0.001  0.018  0.019
   21  0.045  0.004  0.008  0.056
   22  0.003  0.003  0.005  0.011
   23  0.045  0.004  0.007  0.057
   24  0.000  0.007  0.008  0.015
   25  0.000  0.013  0.003  0.016
   26  0.025  0.004  0.006  0.035
   27  0.003  0.003  0.005  0.011
   28  0.000  0.003  0.004  0.007
   29  0.000  0.001  0.003  0.004
   30  0.006  0.002  0.003  0.011
   31  0.000  0.001  0.003  0.004
   32  0.010  0.002  0.003  0.015
   33  0.006  0.002  0.003  0.011
   34  0.010  0.002  0.003  0.015
   35  0.000  0.000  0.003  0.003
   36  0.000  0.005  0.007  0.011
tot    0.345  0.117  0.181  0.643
 
band     6 # energy   -5.71658765 # occ.  2.00000000
 
ion      s      p      d    tot
    1  0.020  0.003  0.001  0.025
    2  0.000  0.002  0.004  0.006
    3  0.000  0.002  0.004  0.006
    4  0.000  0.002  0.004  0.006
    5  0.002  0.000  0.000  0.003
    6  0.000  0.002  0.004  0.006
    7  0.000  0.002  0.004  0.006
    8  0.000  0.002  0.004  0.006
    9  0.008  0.001  0.000  0.010
   10  0.031  0.006  0.005  0.042
   11  0.007  0.000  0.012  0.018
   12  0.031  0.006  0.005  0.042
   13  0.007  0.000  0.012  0.018
   14  0.006  0.000  0.012  0.018
   15  0.010  0.008  0.004  0.021
   16  0.031  0.006  0.005  0.042
   17  0.010  0.008  0.004  0.021
   18  0.010  0.007  0.004  0.021
   19  0.024  0.009  0.002  0.036
   20  0.000  0.003  0.011  0.014
   21  0.000  0.003  0.010  0.013
   22  0.023  0.002  0.009  0.034
   23  0.000  0.003  0.010  0.013
   24  0.022  0.002  0.009  0.033
   25  0.024  0.009  0.002  0.035
   26  0.024  0.009  0.002  0.036
   27  0.023  0.002  0.009  0.034
   28  0.018  0.003  0.001  0.022
   29  0.000  0.002  0.004  0.006
   30  0.000  0.002  0.004  0.006
   31  0.000  0.002  0.004  0.006
   32  0.000  0.002  0.004  0.006
   33  0.000  0.002  0.004  0.006
   34  0.000  0.002  0.004  0.006
   35  0.013  0.002  0.001  0.016
   36  0.000  0.000  0.000  0.001
tot    0.344  0.114  0.182  0.640
 
band     7 # energy   -5.71142784 # occ.  2.00000000
 
ion      s      p      d    tot
    1  0.000  0.000  0.002  0.003
    2  0.010  0.002  0.002  0.015
    3  0.003  0.001  0.002  0.006
    4  0.010  0.002  0.002  0.015
    5  0.000  0.001  0.005  0.006
    6  0.003  0.001  0.002  0.006
    7  0.002  0.001  0.002  0.006
    8  0.002  0.001  0.002  0.006
    9  0.000  0.003  0.005  0.008
   10  0.000  0.011  0.003  0.014
   11  0.031  0.004  0.005  0.040
   12  0.001  0.004  0.005  0.009
   13  0.029  0.003  0.006  0.039
   14  0.000  0.000  0.016  0.016
   15  0.039  0.004  0.006  0.049
   16  0.001  0.003  0.005  0.009
   17  0.037  0.004  0.006  0.048
   18  0.000  0.009  0.008  0.017
   19  0.023  0.004  0.005  0.032
   20  0.000  0.013  0.002  0.015
   21  0.004  0.004  0.005  0.013
   22  0.044  0.004  0.007  0.054
   23  0.004  0.003  0.005  0.013
   24  0.000  0.007  0.010  0.017
   25  0.000  0.001  0.016  0.017
   26  0.022  0.003  0.006  0.032
   27  0.046  0.004  0.006  0.056
   28  0.000  0.001  0.005  0.005
   29  0.011  0.003  0.003  0.016
   30  0.005  0.002  0.003  0.009
   31  0.011  0.003  0.003  0.016
   32  0.002  0.001  0.003  0.005
   33  0.004  0.002  0.003  0.009
   34  0.001  0.001  0.003  0.005
   35  0.000  0.004  0.006  0.009
   36  0.000  0.002  0.003  0.005
tot    0.344  0.116  0.179  0.639
 
band     8 # energy   -5.71139423 # occ.  2.00000000
 
ion      s      p      d    tot
    1  0.000  0.000  0.002  0.003
    2  0.000  0.001  0.002  0.003
    3  0.007  0.002  0.002  0.012
    4  0.000  0.001  0.002  0.003
    5  0.000  0.001  0.005  0.006
    6  0.007  0.002  0.002  0.012
    7  0.008  0.002  0.002  0.012
    8  0.008  0.002  0.002  0.012
    9  0.000  0.003  0.005  0.008
   10  0.001  0.001  0.005  0.007
   11  0.009  0.001  0.013  0.023
   12  0.000  0.008  0.004  0.012
   13  0.011  0.001  0.013  0.024
   14  0.040  0.005  0.002  0.047
   15  0.012  0.007  0.007  0.027
   16  0.000  0.009  0.004  0.013
   17  0.014  0.007  0.007  0.028
   18  0.051  0.002  0.006  0.058
   19  0.007  0.002  0.013  0.021
   20  0.005  0.000  0.006  0.012
   21  0.001  0.010  0.003  0.014
   22  0.016  0.006  0.009  0.030
   23  0.001  0.010  0.003  0.014
   24  0.060  0.003  0.005  0.068
   25  0.031  0.004  0.002  0.037
   26  0.008  0.002  0.012  0.022
   27  0.014  0.006  0.009  0.029
   28  0.000  0.001  0.005  0.005
   29  0.000  0.001  0.003  0.004
   30  0.007  0.002  0.003  0.011
   31  0.000  0.001  0.003  0.004
   32  0.010  0.003  0.003  0.015
   33  0.007  0.002  0.003  0.012
   34  0.010  0.003  0.003  0.015
   35  0.000  0.004  0.006  0.009
   36  0.000  0.002  0.003  0.005
tot    0.344  0.116  0.179  0.639
 
band     9 # energy   -5.65602138 # occ.  2.00000000
 
ion      s      p      d    tot
    1  0.000  0.000  0.001  0.001
    2  0.002  0.002  0.005  0.009
    3  0.002  0.002  0.005  0.009
    4  0.002  0.002  0.005  0.009
    5  0.035  0.003  0.000  0.038
    6  0.002  0.002  0.005  0.009
    7  0.002  0.002  0.005  0.009
    8  0.002  0.002  0.005  0.009
    9  0.004  0.002  0.004  0.010
   10  0.002  0.004  0.009  0.015
   11  0.018  0.009  0.004  0.030
   12  0.002  0.004  0.009  0.015
   13  0.018  0.009  0.004  0.030
   14  0.018  0.009  0.004  0.030
   15  0.029  0.002  0.010  0.041
   16  0.002  0.004  0.009  0.015
   17  0.029  0.002  0.010  0.041
   18  0.029  0.002  0.010  0.041
   19  0.008  0.001  0.009  0.019
   20  0.019  0.004  0.007  0.030
   21  0.019  0.004  0.007  0.030
   22  0.011  0.007  0.004  0.022
   23  0.019  0.004  0.007  0.030
   24  0.011  0.007  0.004  0.022
   25  0.008  0.001  0.009  0.019
   26  0.008  0.001  0.009  0.019
   27  0.011  0.007  0.004  0.022
   28  0.000  0.000  0.003  0.004
   29  0.003  0.001  0.004  0.007
   30  0.003  0.001  0.004  0.007
   31  0.003  0.001  0.004  0.007
   32  0.003  0.001  0.004  0.007
   33  0.003  0.001  0.004  0.007
   34  0.003  0.001  0.004  0.007
   35  0.000  0.001  0.002  0.003
   36  0.025  0.003  0.000  0.029
tot    0.354  0.110  0.190  0.654
 
band    10 # energy   -4.97702016 # occ.  2.00000000
 
ion      s      p      d    tot
    1  0.002  0.001  0.009  0.012
    2  0.005  0.001  0.009  0.014
    3  0.005  0.001  0.009  0.014
    4  0.005  0.001  0.009  0.014
    5  0.000  0.001  0.009  0.010
    6  0.005  0.001  0.009  0.014
    7  0.005  0.001  0.009  0.014
    8  0.005  0.001  0.009  0.014
    9  0.018  0.000  0.006  0.024
   10  0.009  0.000  0.024  0.034
   11  0.009  0.000  0.021  0.030
   12  0.009  0.000  0.024  0.033
   13  0.009  0.000  0.021  0.030
   14  0.009  0.000  0.021  0.030
   15  0.002  0.000  0.022  0.024
   16  0.009  0.000  0.024  0.033
   17  0.002  0.000  0.022  0.024
   18  0.002  0.000  0.022  0.024
   19  0.006  0.000  0.020  0.026
   20  0.010  0.000  0.027  0.037
   21  0.010  0.000  0.027  0.037
   22  0.002  0.000  0.021  0.023
   23  0.010  0.000  0.027  0.037
   24  0.002  0.000  0.021  0.023
   25  0.006  0.000  0.020  0.026
   26  0.006  0.000  0.020  0.026
   27  0.002  0.000  0.021  0.023
   28  0.001  0.001  0.007  0.009
   29  0.004  0.001  0.009  0.013
   30  0.004  0.001  0.009  0.013
   31  0.004  0.001  0.009  0.013
   32  0.004  0.001  0.009  0.013
   33  0.004  0.001  0.009  0.013
   34  0.004  0.001  0.009  0.013
   35  0.015  0.000  0.006  0.022
   36  0.000  0.002  0.008  0.010
tot    0.201  0.018  0.556  0.776
 
band    11 # energy   -4.96687888 # occ.  2.00000000
 
ion      s      p      d    tot
    1  0.000  0.003  0.011  0.014
    2  0.002  0.002  0.005  0.009
    3  0.020  0.004  0.005  0.029
    4  0.002  0.002  0.005  0.009
    5  0.000  0.000  0.011  0.011
    6  0.009  0.002  0.005  0.016
    7  0.020  0.004  0.005  0.029
    8  0.009  0.002  0.005  0.017
    9  0.000  0.005  0.008  0.014
   10  0.007  0.001  0.006  0.014
   11  0.001  0.002  0.013  0.016
   12  0.002  0.003  0.018  0.023
   13  0.001  0.002  0.013  0.016
   14  0.005  0.002  0.009  0.016
   15  0.006  0.002  0.019  0.026
   16  0.002  0.003  0.018  0.023
   17  0.006  0.002  0.018  0.026
   18  0.024  0.005  0.005  0.034
   19  0.004  0.001  0.015  0.020
   20  0.000  0.000  0.010  0.011
   21  0.000  0.002  0.016  0.018
   22  0.003  0.002  0.022  0.028
   23  0.000  0.002  0.016  0.018
   24  0.013  0.003  0.004  0.020
   25  0.016  0.006  0.008  0.030
   26  0.004  0.002  0.015  0.020
   27  0.003  0.002  0.022  0.028
   28  0.000  0.004  0.009  0.013
   29  0.003  0.002  0.007  0.012
   30  0.022  0.004  0.007  0.033
   31  0.003  0.002  0.007  0.012
   32  0.009  0.003  0.007  0.018
   33  0.023  0.004  0.007  0.033
   34  0.009  0.003  0.007  0.018
   35  0.000  0.005  0.010  0.016
   36  0.000  0.000  0.012  0.012
tot    0.228  0.094  0.380  0.702
 
band    12 # energy   -4.96687183 # occ.  2.00000000
 
ion      s      p      d    tot
    1  0.000  0.003  0.011  0.014
    2  0.019  0.004  0.005  0.027
    3  0.001  0.002  0.005  0.008
    4  0.019  0.004  0.005  0.028
    5  0.000  0.000  0.011  0.011
    6  0.012  0.003  0.005  0.020
    7  0.001  0.002  0.005  0.007
    8  0.011  0.003  0.005  0.020
    9  0.000  0.005  0.008  0.014
   10  0.000  0.004  0.022  0.026
   11  0.004  0.002  0.010  0.016
   12  0.005  0.002  0.010  0.017
   13  0.004  0.002  0.010  0.016
   14  0.000  0.002  0.014  0.016
   15  0.018  0.004  0.010  0.032
   16  0.005  0.002  0.010  0.017
   17  0.018  0.004  0.010  0.031
   18  0.000  0.000  0.023  0.023
   19  0.012  0.004  0.010  0.026
   20  0.000  0.003  0.018  0.021
   21  0.000  0.001  0.012  0.014
   22  0.009  0.003  0.010  0.023
   23  0.000  0.001  0.012  0.013
   24  0.000  0.002  0.028  0.030
   25  0.000  0.000  0.017  0.017
   26  0.011  0.004  0.011  0.026
   27  0.010  0.003  0.010  0.022
   28  0.000  0.004  0.009  0.013
   29  0.020  0.004  0.007  0.030
   30  0.001  0.002  0.007  0.009
   31  0.020  0.004  0.007  0.030
   32  0.014  0.003  0.007  0.024
   33  0.000  0.002  0.007  0.009
   34  0.014  0.003  0.007  0.023
   35  0.000  0.005  0.010  0.016
   36  0.000  0.000  0.012  0.012
tot    0.228  0.094  0.380  0.702
 
band    13 # energy   -4.95703182 # occ.  2.00000000
 
ion      s      p      d    tot
    1  0.037  0.003  0.000  0.040
    2  0.000  0.003  0.010  0.013
    3  0.000  0.003  0.010  0.013
    4  0.000  0.003  0.010  0.013
    5  0.000  0.000  0.001  0.001
    6  0.000  0.003  0.010  0.013
    7  0.000  0.003  0.010  0.013
    8  0.000  0.003  0.010  0.013
    9  0.023  0.004  0.001  0.028
   10  0.006  0.003  0.012  0.021
   11  0.003  0.000  0.015  0.018
   12  0.007  0.003  0.011  0.021
   13  0.003  0.000  0.015  0.018
   14  0.002  0.000  0.016  0.018
   15  0.008  0.003  0.016  0.027
   16  0.007  0.003  0.011  0.021
   17  0.008  0.003  0.016  0.027
   18  0.008  0.003  0.017  0.028
   19  0.003  0.003  0.019  0.026
   20  0.000  0.000  0.016  0.016
   21  0.000  0.000  0.016  0.016
   22  0.013  0.003  0.010  0.025
   23  0.000  0.000  0.016  0.016
   24  0.012  0.003  0.010  0.025
   25  0.004  0.003  0.019  0.026
   26  0.003  0.003  0.019  0.026
   27  0.013  0.003  0.010  0.025
   28  0.040  0.003  0.000  0.043
   29  0.000  0.003  0.012  0.015
   30  0.000  0.003  0.012  0.015
   31  0.000  0.003  0.012  0.015
   32  0.000  0.003  0.012  0.015
   33  0.000  0.003  0.012  0.015
   34  0.000  0.003  0.012  0.015
   35  0.022  0.003  0.002  0.027
   36  0.000  0.000  0.000  0.000
tot    0.224  0.087  0.398  0.709
 
band    14 # energy   -4.95633917 # occ.  2.00000000
 
ion      s      p      d    tot
    1  0.000  0.003  0.009  0.012
    2  0.020  0.004  0.005  0.029
    3  0.001  0.001  0.005  0.007
    4  0.019  0.004  0.005  0.028
    5  0.000  0.006  0.009  0.015
    6  0.010  0.003  0.005  0.019
    7  0.001  0.002  0.005  0.008
    8  0.012  0.003  0.005  0.021
    9  0.000  0.001  0.012  0.013
   10  0.017  0.005  0.008  0.030
   11  0.005  0.002  0.020  0.028
   12  0.003  0.001  0.016  0.021
   13  0.004  0.002  0.022  0.028
   14  0.018  0.003  0.005  0.026
   15  0.000  0.003  0.015  0.017
   16  0.005  0.001  0.016  0.022
   17  0.000  0.003  0.015  0.018
   18  0.000  0.000  0.008  0.008
   19  0.001  0.003  0.019  0.023
   20  0.020  0.005  0.006  0.032
   21  0.004  0.002  0.026  0.032
   22  0.001  0.002  0.012  0.015
   23  0.006  0.002  0.024  0.032
   24  0.008  0.003  0.010  0.021
   25  0.003  0.000  0.006  0.010
   26  0.001  0.003  0.020  0.024
   27  0.002  0.002  0.012  0.016
   28  0.000  0.002  0.013  0.015
   29  0.019  0.004  0.006  0.029
   30  0.000  0.001  0.006  0.007
   31  0.017  0.003  0.006  0.027
   32  0.012  0.003  0.006  0.021
   33  0.001  0.002  0.006  0.008
   34  0.014  0.003  0.006  0.023
   35  0.000  0.001  0.011  0.012
   36  0.000  0.011  0.006  0.017
tot    0.225  0.097  0.390  0.712
 
band    15 # energy   -4.95632319 # occ.  2.00000000
 
ion      s      p      d    tot
    1  0.000  0.003  0.009  0.012
    2  0.001  0.002  0.005  0.008
    3  0.020  0.004  0.005  0.030
    4  0.002  0.002  0.005  0.009
    5  0.000  0.006  0.009  0.015
    6  0.011  0.003  0.005  0.018
    7  0.020  0.004  0.005  0.029
    8  0.009  0.002  0.005  0.016
    9  0.000  0.001  0.012  0.013
   10  0.000  0.000  0.019  0.019
   11  0.013  0.003  0.011  0.027
   12  0.013  0.004  0.010  0.027
   13  0.014  0.003  0.010  0.027
   14  0.000  0.002  0.027  0.029
   15  0.000  0.001  0.011  0.012
   16  0.012  0.003  0.011  0.026
   17  0.000  0.001  0.010  0.011
   18  0.000  0.004  0.017  0.020
   19  0.002  0.001  0.012  0.015
   20  0.000  0.001  0.031  0.032
   21  0.016  0.004  0.011  0.032
   22  0.006  0.003  0.011  0.019
   23  0.015  0.004  0.013  0.032
   24  0.000  0.001  0.013  0.014
   25  0.000  0.003  0.024  0.027
   26  0.003  0.001  0.010  0.014
   27  0.005  0.003  0.011  0.019
   28  0.000  0.002  0.013  0.015
   29  0.002  0.002  0.006  0.010
   30  0.021  0.004  0.007  0.031
   31  0.004  0.002  0.006  0.011
   32  0.009  0.003  0.006  0.017
   33  0.020  0.004  0.007  0.031
   34  0.007  0.002  0.006  0.015
   35  0.000  0.001  0.011  0.012
   36  0.000  0.011  0.006  0.017
tot    0.225  0.097  0.390  0.712
 
band    16 # energy   -4.83111786 # occ.  2.00000000
 
ion      s      p      d    tot
    1  0.012  0.001  0.000  0.014
    2  0.000  0.003  0.011  0.014
    3  0.000  0.003  0.011  0.014
    4  0.000  0.003  0.011  0.014
    5  0.046  0.004  0.000  0.049
    6  0.000  0.003  0.011  0.014
    7  0.000  0.003  0.011  0.014
    8  0.000  0.003  0.011  0.014
    9  0.006  0.001  0.001  0.008
   10  0.001  0.001  0.025  0.027
   11  0.004  0.004  0.019  0.028
   12  0.001  0.001  0.025  0.027
   13  0.004  0.004  0.019  0.028
   14  0.004  0.004  0.019  0.028
   15  0.005  0.001  0.009  0.015
   16  0.001  0.001  0.025  0.027
   17  0.005  0.001  0.009  0.015
   18  0.005  0.001  0.009  0.015
   19  0.010  0.001  0.020  0.031
   20  0.010  0.004  0.010  0.025
   21  0.010  0.004  0.010  0.025
   22  0.003  0.001  0.018  0.022
   23  0.010  0.004  0.010  0.025
   24  0.003  0.001  0.018  0.022
   25  0.010  0.001  0.020  0.031
   26  0.010  0.001  0.020  0.031
   27  0.003  0.001  0.018  0.022
   28  0.003  0.002  0.004  0.009
   29  0.001  0.002  0.011  0.014
   30  0.001  0.002  0.011  0.014
   31  0.001  0.002  0.011  0.014
   32  0.001  0.002  0.011  0.014
   33  0.001  0.002  0.011  0.014
   34  0.001  0.002  0.011  0.014
   35  0.005  0.001  0.002  0.007
   36  0.045  0.007  0.000  0.052
tot    0.221  0.086  0.440  0.748
 
band    17 # energy   -4.29509822 # occ.  2.00000000
 
ion      s      p      d    tot
    1  0.000  0.001  0.033  0.034
    2  0.014  0.001  0.009  0.025
    3  0.008  0.001  0.009  0.018
    4  0.014  0.001  0.009  0.025
    5  0.000  0.001  0.014  0.015
    6  0.001  0.001  0.009  0.011
    7  0.008  0.001  0.009  0.017
    8  0.001  0.001  0.009  0.011
    9  0.000  0.003  0.005  0.008
   10  0.000  0.000  0.060  0.060
   11  0.000  0.004  0.017  0.021
   12  0.000  0.000  0.019  0.020
   13  0.000  0.004  0.017  0.021
   14  0.000  0.000  0.009  0.009
   15  0.001  0.004  0.016  0.021
   16  0.000  0.000  0.018  0.019
   17  0.001  0.004  0.016  0.021
   18  0.000  0.000  0.029  0.029
   19  0.001  0.004  0.017  0.023
   20  0.000  0.000  0.065  0.065
   21  0.000  0.000  0.025  0.025
   22  0.001  0.003  0.016  0.020
   23  0.000  0.000  0.024  0.024
   24  0.000  0.000  0.031  0.031
   25  0.000  0.000  0.012  0.012
   26  0.001  0.004  0.017  0.022
   27  0.001  0.003  0.016  0.020
   28  0.000  0.001  0.008  0.010
   29  0.011  0.001  0.015  0.026
   30  0.000  0.001  0.013  0.014
   31  0.011  0.001  0.015  0.027
   32  0.012  0.001  0.013  0.026
   33  0.000  0.001  0.013  0.014
   34  0.011  0.001  0.013  0.025
   35  0.000  0.002  0.012  0.014
   36  0.000  0.000  0.024  0.024
tot    0.099  0.050  0.653  0.803
 
band    18 # energy   -4.29507418 # occ.  2.00000000
 
ion      s      p      d    tot
    1  0.000  0.001  0.033  0.034
    2  0.001  0.001  0.009  0.010
    3  0.007  0.001  0.009  0.018
    4  0.001  0.001  0.009  0.011
    5  0.000  0.001  0.014  0.015
    6  0.014  0.001  0.009  0.024
    7  0.008  0.001  0.009  0.018
    8  0.015  0.001  0.009  0.025
    9  0.000  0.003  0.005  0.008
   10  0.000  0.000  0.005  0.006
   11  0.000  0.001  0.012  0.013
   12  0.000  0.000  0.046  0.046
   13  0.000  0.001  0.012  0.013
   14  0.000  0.005  0.019  0.024
   15  0.000  0.001  0.025  0.026
   16  0.000  0.000  0.047  0.047
   17  0.000  0.002  0.024  0.026
   18  0.001  0.006  0.012  0.018
   19  0.000  0.001  0.014  0.015
   20  0.000  0.000  0.011  0.011
   21  0.000  0.000  0.051  0.051
   22  0.001  0.001  0.025  0.027
   23  0.000  0.000  0.052  0.052
   24  0.002  0.004  0.011  0.017
   25  0.002  0.005  0.019  0.026
   26  0.000  0.002  0.014  0.016
   27  0.000  0.001  0.026  0.027
   28  0.000  0.001  0.008  0.010
   29  0.004  0.001  0.012  0.017
   30  0.015  0.001  0.014  0.030
   31  0.004  0.001  0.012  0.017
   32  0.003  0.001  0.014  0.018
   33  0.015  0.001  0.014  0.030
   34  0.004  0.001  0.014  0.019
   35  0.000  0.002  0.012  0.014
   36  0.000  0.000  0.024  0.024
tot    0.099  0.050  0.653  0.803
 
band    19 # energy   -4.27340799 # occ.  2.00000000
 
ion      s      p      d    tot
    1  0.003  0.000  0.001  0.004
    2  0.000  0.001  0.017  0.018
    3  0.000  0.001  0.017  0.018
    4  0.000  0.001  0.017  0.018
    5  0.013  0.000  0.000  0.013
    6  0.000  0.001  0.017  0.018
    7  0.000  0.001  0.017  0.018
    8  0.000  0.001  0.017  0.018
    9  0.028  0.001  0.002  0.030
   10  0.000  0.001  0.009  0.011
   11  0.000  0.000  0.018  0.019
   12  0.000  0.001  0.009  0.011
   13  0.000  0.000  0.018  0.019
   14  0.000  0.000  0.018  0.019
   15  0.000  0.003  0.036  0.040
   16  0.000  0.001  0.009  0.011
   17  0.000  0.003  0.036  0.040
   18  0.000  0.003  0.037  0.040
   19  0.000  0.001  0.027  0.028
   20  0.000  0.000  0.010  0.011
   21  0.000  0.000  0.010  0.011
   22  0.001  0.003  0.032  0.036
   23  0.000  0.000  0.010  0.011
   24  0.001  0.003  0.032  0.036
   25  0.000  0.001  0.027  0.028
   26  0.000  0.001  0.027  0.028
   27  0.001  0.003  0.032  0.036
   28  0.023  0.001  0.001  0.025
   29  0.000  0.001  0.025  0.027
   30  0.000  0.001  0.025  0.027
   31  0.000  0.001  0.025  0.027
   32  0.000  0.001  0.025  0.027
   33  0.000  0.001  0.025  0.027
   34  0.000  0.001  0.025  0.027
   35  0.023  0.000  0.004  0.027
   36  0.000  0.000  0.001  0.001
tot    0.096  0.048  0.660  0.804
 
band    20 # energy   -4.27017922 # occ.  2.00000000
 
ion      s      p      d    tot
    1  0.000  0.002  0.002  0.004
    2  0.014  0.001  0.010  0.025
    3  0.007  0.001  0.009  0.017
    4  0.014  0.001  0.010  0.025
    5  0.000  0.002  0.020  0.022
    6  0.001  0.001  0.009  0.011
    7  0.007  0.001  0.009  0.017
    8  0.001  0.001  0.009  0.011
    9  0.000  0.000  0.031  0.031
   10  0.001  0.007  0.021  0.029
   11  0.000  0.001  0.041  0.042
   12  0.000  0.002  0.010  0.012
   13  0.000  0.001  0.041  0.042
   14  0.001  0.003  0.004  0.008
   15  0.000  0.000  0.030  0.031
   16  0.000  0.002  0.010  0.012
   17  0.000  0.000  0.031  0.031
   18  0.000  0.001  0.011  0.013
   19  0.000  0.000  0.044  0.045
   20  0.002  0.007  0.022  0.031
   21  0.000  0.002  0.017  0.019
   22  0.000  0.001  0.024  0.025
   23  0.000  0.002  0.017  0.019
   24  0.000  0.003  0.014  0.017
   25  0.001  0.001  0.004  0.005
   26  0.000  0.000  0.044  0.045
   27  0.000  0.001  0.024  0.025
   28  0.000  0.001  0.031  0.032
   29  0.012  0.001  0.013  0.026
   30  0.000  0.001  0.011  0.012
   31  0.012  0.001  0.013  0.026
   32  0.011  0.001  0.012  0.023
   33  0.000  0.001  0.011  0.012
   34  0.011  0.001  0.012  0.023
   35  0.000  0.000  0.029  0.030
   36  0.000  0.004  0.000  0.004
tot    0.098  0.054  0.650  0.802
 
band    21 # energy   -4.27013160 # occ.  2.00000000
 
ion      s      p      d    tot
    1  0.000  0.002  0.002  0.004
    2  0.001  0.001  0.009  0.010
    3  0.008  0.001  0.010  0.019
    4  0.001  0.001  0.009  0.010
    5  0.000  0.002  0.020  0.022
    6  0.014  0.001  0.009  0.025
    7  0.008  0.001  0.010  0.019
    8  0.014  0.001  0.009  0.025
    9  0.000  0.000  0.031  0.031
   10  0.000  0.000  0.006  0.006
   11  0.001  0.002  0.017  0.019
   12  0.001  0.006  0.018  0.024
   13  0.001  0.002  0.016  0.019
   14  0.000  0.000  0.053  0.053
   15  0.000  0.001  0.018  0.019
   16  0.001  0.005  0.018  0.024
   17  0.000  0.001  0.018  0.019
   18  0.000  0.000  0.037  0.037
   19  0.001  0.001  0.017  0.019
   20  0.000  0.000  0.015  0.015
   21  0.001  0.005  0.020  0.027
   22  0.000  0.002  0.018  0.020
   23  0.001  0.005  0.020  0.027
   24  0.000  0.000  0.027  0.027
   25  0.000  0.000  0.058  0.058
   26  0.001  0.001  0.017  0.018
   27  0.000  0.002  0.018  0.020
   28  0.000  0.001  0.031  0.032
   29  0.003  0.001  0.011  0.015
   30  0.015  0.001  0.013  0.029
   31  0.003  0.001  0.011  0.015
   32  0.004  0.001  0.012  0.017
   33  0.015  0.001  0.013  0.029
   34  0.004  0.001  0.012  0.017
   35  0.000  0.000  0.029  0.030
   36  0.000  0.004  0.000  0.004
tot    0.098  0.054  0.650  0.802
 
band    22 # energy   -4.19980085 # occ.  2.00000000
 
ion      s      p      d    tot
    1  0.027  0.001  0.002  0.029
    2  0.000  0.001  0.018  0.019
    3  0.000  0.001  0.018  0.019
    4  0.000  0.001  0.018  0.019
    5  0.011  0.000  0.003  0.014
    6  0.000  0.001  0.018  0.019
    7  0.000  0.001  0.018  0.019
    8  0.000  0.001  0.018  0.019
    9  0.004  0.000  0.000  0.004
   10  0.000  0.002  0.029  0.032
   11  0.001  0.002  0.025  0.028
   12  0.000  0.002  0.029  0.032
   13  0.001  0.002  0.025  0.028
   14  0.001  0.002  0.025  0.028
   15  0.000  0.000  0.009  0.009
   16  0.000  0.002  0.029  0.032