PROCAR new format
# of k-points:   10         # of bands:  252         # of ions:   39

 k-point     1 :    0.00000000 0.00000000 0.00000000     weight = 0.01562500

band     1 # energy  -24.42545873 # occ.  2.00000000
 
ion      s      p      d    tot
    1  0.000  0.000  0.000  0.000
    2  0.000  0.000  0.000  0.000
    3  0.000  0.000  0.000  0.000
    4  0.000  0.000  0.000  0.000
    5  0.000  0.000  0.000  0.000
    6  0.000  0.000  0.000  0.000
    7  0.000  0.000  0.000  0.000
    8  0.000  0.000  0.000  0.000
    9  0.000  0.000  0.000  0.000
   10  0.000  0.000  0.000  0.000
   11  0.000  0.000  0.000  0.000
   12  0.000  0.000  0.000  0.000
   13  0.000  0.000  0.000  0.000
   14  0.000  0.000  0.000  0.000
   15  0.000  0.000  0.000  0.000
   16  0.000  0.000  0.000  0.000
   17  0.000  0.000  0.000  0.000
   18  0.000  0.000  0.000  0.000
   19  0.000  0.000  0.000  0.000
   20  0.000  0.000  0.000  0.000
   21  0.000  0.000  0.000  0.000
   22  0.000  0.000  0.000  0.000
   23  0.000  0.000  0.000  0.000
   24  0.000  0.000  0.000  0.000
   25  0.000  0.000  0.000  0.000
   26  0.000  0.000  0.000  0.000
   27  0.000  0.000  0.000  0.000
   28  0.000  0.000  0.000  0.000
   29  0.000  0.000  0.000  0.000
   30  0.000  0.000  0.000  0.000
   31  0.000  0.000  0.000  0.000
   32  0.000  0.000  0.000  0.000
   33  0.000  0.000  0.000  0.000
   34  0.000  0.000  0.000  0.000
   35  0.000  0.000  0.000  0.000
   36  0.000  0.000  0.000  0.000
   37  0.076  0.056  0.000  0.132
   38  0.725  0.006  0.000  0.731
   39  0.063  0.013  0.000  0.077
tot    0.865  0.076  0.000  0.940
 
band     2 # energy  -15.16729752 # occ.  2.00000000
 
ion      s      p      d    tot
    1  0.000  0.000  0.000  0.000
    2  0.000  0.000  0.000  0.000
    3  0.000  0.000  0.000  0.000
    4  0.000  0.000  0.000  0.000
    5  0.000  0.000  0.000  0.000
    6  0.000  0.000  0.000  0.000
    7  0.000  0.000  0.000  0.000
    8  0.000  0.000  0.000  0.000
    9  0.000  0.000  0.000  0.000
   10  0.000  0.000  0.000  0.000
   11  0.000  0.000  0.000  0.000
   12  0.000  0.000  0.000  0.000
   13  0.000  0.000  0.000  0.000
   14  0.000  0.000  0.000  0.000
   15  0.000  0.000  0.000  0.000
   16  0.000  0.000  0.000  0.000
   17  0.000  0.000  0.000  0.000
   18  0.000  0.000  0.000  0.000
   19  0.000  0.000  0.000  0.000
   20  0.000  0.000  0.000  0.000
   21  0.000  0.000  0.000  0.000
   22  0.000  0.000  0.000  0.000
   23  0.000  0.000  0.000  0.000
   24  0.000  0.000  0.000  0.000
   25  0.000  0.000  0.000  0.000
   26  0.000  0.000  0.000  0.000
   27  0.000  0.000  0.000  0.000
   28  0.000  0.000  0.000  0.000
   29  0.000  0.000  0.000  0.000
   30  0.000  0.000  0.000  0.000
   31  0.000  0.000  0.000  0.000
   32  0.000  0.000  0.000  0.000
   33  0.000  0.000  0.000  0.000
   34  0.000  0.000  0.000  0.000
   35  0.000  0.000  0.000  0.000
   36  0.003  0.002  0.003  0.009
   37  0.161  0.048  0.000  0.210
   38  0.017  0.519  0.000  0.536
   39  0.201  0.032  0.000  0.233
tot    0.382  0.602  0.003  0.988
 
band     3 # energy   -9.04316635 # occ.  2.00000000
 
ion      s      p      d    tot
    1  0.003  0.000  0.000  0.004
    2  0.003  0.000  0.000  0.004
    3  0.003  0.000  0.000  0.004
    4  0.003  0.000  0.000  0.004
    5  0.003  0.000  0.000  0.004
    6  0.003  0.000  0.000  0.004
    7  0.003  0.000  0.000  0.004
    8  0.003  0.000  0.000  0.004
    9  0.003  0.000  0.000  0.004
   10  0.014  0.000  0.000  0.015
   11  0.015  0.000  0.000  0.015
   12  0.014  0.000  0.000  0.015
   13  0.015  0.000  0.000  0.015
   14  0.015  0.000  0.000  0.015
   15  0.013  0.000  0.000  0.014
   16  0.014  0.000  0.000  0.015
   17  0.013  0.000  0.000  0.014
   18  0.013  0.000  0.000  0.014
   19  0.018  0.000  0.000  0.018
   20  0.029  0.000  0.001  0.030
   21  0.029  0.000  0.001  0.030
   22  0.018  0.000  0.000  0.018
   23  0.029  0.000  0.001  0.030
   24  0.018  0.000  0.000  0.018
   25  0.018  0.000  0.000  0.018
   26  0.018  0.000  0.000  0.018
   27  0.018  0.000  0.000  0.018
   28  0.006  0.001  0.000  0.007
   29  0.009  0.001  0.000  0.010
   30  0.009  0.001  0.000  0.010
   31  0.009  0.001  0.000  0.010
   32  0.009  0.001  0.000  0.010
   33  0.009  0.001  0.000  0.010
   34  0.009  0.001  0.000  0.010
   35  0.006  0.001  0.000  0.007
   36  0.081  0.004  0.039  0.124
   37  0.038  0.041  0.000  0.080
   38  0.003  0.014  0.000  0.016
   39  0.004  0.000  0.000  0.004
tot    0.545  0.070  0.042  0.658
 
band     4 # energy   -8.38941549 # occ.  2.00000000
 
ion      s      p      d    tot
    1  0.007  0.001  0.000  0.007
    2  0.007  0.001  0.000  0.007
    3  0.007  0.001  0.000  0.007
    4  0.007  0.001  0.000  0.007
    5  0.006  0.001  0.000  0.007
    6  0.007  0.001  0.000  0.007
    7  0.007  0.001  0.000  0.007
    8  0.007  0.001  0.000  0.007
    9  0.007  0.001  0.000  0.008
   10  0.015  0.000  0.000  0.015
   11  0.013  0.000  0.000  0.013
   12  0.015  0.000  0.000  0.015
   13  0.013  0.000  0.000  0.013
   14  0.013  0.000  0.000  0.013
   15  0.016  0.000  0.000  0.016
   16  0.015  0.000  0.000  0.015
   17  0.016  0.000  0.000  0.016
   18  0.016  0.000  0.000  0.016
   19  0.004  0.001  0.000  0.005
   20  0.000  0.003  0.002  0.005
   21  0.000  0.003  0.002  0.005
   22  0.004  0.001  0.000  0.005
   23  0.000  0.003  0.002  0.005
   24  0.004  0.001  0.000  0.005
   25  0.004  0.001  0.000  0.005
   26  0.004  0.001  0.000  0.005
   27  0.004  0.001  0.000  0.005
   28  0.000  0.000  0.000  0.000
   29  0.001  0.001  0.000  0.001
   30  0.001  0.001  0.000  0.001
   31  0.001  0.001  0.000  0.001
   32  0.001  0.001  0.000  0.001
   33  0.001  0.001  0.000  0.001
   34  0.001  0.001  0.000  0.001
   35  0.000  0.000  0.000  0.000
   36  0.092  0.030  0.123  0.245
   37  0.112  0.108  0.000  0.221
   38  0.008  0.032  0.000  0.040
   39  0.009  0.001  0.000  0.010
tot    0.439  0.194  0.134  0.766
 
band     5 # energy   -7.44389528 # occ.  2.00000000
 
ion      s      p      d    tot
    1  0.015  0.001  0.001  0.016
    2  0.015  0.001  0.001  0.016
    3  0.015  0.001  0.001  0.016
    4  0.015  0.001  0.001  0.016
    5  0.015  0.001  0.000  0.016
    6  0.015  0.001  0.001  0.016
    7  0.015  0.001  0.001  0.016
    8  0.015  0.001  0.001  0.016
    9  0.014  0.000  0.001  0.015
   10  0.006  0.002  0.000  0.008
   11  0.007  0.002  0.000  0.009
   12  0.006  0.002  0.000  0.008
   13  0.007  0.002  0.000  0.009
   14  0.007  0.002  0.000  0.009
   15  0.005  0.002  0.000  0.008
   16  0.006  0.002  0.000  0.008
   17  0.005  0.002  0.000  0.008
   18  0.005  0.002  0.000  0.008
   19  0.014  0.002  0.001  0.017
   20  0.006  0.002  0.002  0.009
   21  0.006  0.002  0.002  0.009
   22  0.014  0.002  0.001  0.016
   23  0.006  0.002  0.002  0.009
   24  0.014  0.002  0.001  0.016
   25  0.014  0.002  0.001  0.016
   26  0.014  0.002  0.001  0.017
   27  0.014  0.002  0.001  0.016
   28  0.020  0.001  0.000  0.021
   29  0.015  0.001  0.001  0.017
   30  0.015  0.001  0.001  0.017
   31  0.015  0.001  0.001  0.017
   32  0.015  0.001  0.001  0.017
   33  0.015  0.001  0.001  0.017
   34  0.015  0.001  0.001  0.017
   35  0.020  0.001  0.000  0.021
   36  0.000  0.015  0.067  0.082
   37  0.033  0.027  0.000  0.060
   38  0.002  0.006  0.000  0.008
   39  0.002  0.000  0.000  0.002
tot    0.455  0.097  0.089  0.641
 
band     6 # energy   -7.23326342 # occ.  2.00000000
 
ion      s      p      d    tot
    1  0.000  0.000  0.000  0.000
    2  0.000  0.000  0.000  0.000
    3  0.000  0.000  0.000  0.000
    4  0.000  0.000  0.000  0.000
    5  0.000  0.000  0.000  0.000
    6  0.000  0.000  0.000  0.000
    7  0.000  0.000  0.000  0.000
    8  0.000  0.000  0.000  0.000
    9  0.000  0.000  0.000  0.000
   10  0.000  0.000  0.000  0.000
   11  0.000  0.000  0.000  0.000
   12  0.000  0.000  0.000  0.000
   13  0.000  0.000  0.000  0.000
   14  0.000  0.000  0.000  0.000
   15  0.000  0.000  0.000  0.000
   16  0.000  0.000  0.000  0.000
   17  0.000  0.000  0.000  0.000
   18  0.000  0.000  0.000  0.000
   19  0.000  0.000  0.000  0.000
   20  0.000  0.000  0.000  0.000
   21  0.000  0.000  0.000  0.000
   22  0.000  0.000  0.000  0.000
   23  0.000  0.000  0.000  0.000
   24  0.000  0.000  0.000  0.000
   25  0.000  0.000  0.000  0.000
   26  0.000  0.000  0.000  0.000
   27  0.000  0.000  0.000  0.000
   28  0.000  0.000  0.000  0.000
   29  0.000  0.000  0.001  0.001
   30  0.000  0.000  0.000  0.000
   31  0.000  0.000  0.001  0.001
   32  0.000  0.000  0.001  0.001
   33  0.000  0.000  0.000  0.000
   34  0.000  0.000  0.001  0.001
   35  0.000  0.000  0.000  0.000
   36  0.000  0.002  0.020  0.022
   37  0.000  0.116  0.000  0.116
   38  0.000  0.525  0.000  0.525
   39  0.000  0.007  0.000  0.007
tot    0.002  0.652  0.023  0.677
 
band     7 # energy   -7.23312582 # occ.  2.00000000
 
ion      s      p      d    tot
    1  0.000  0.000  0.000  0.000
    2  0.000  0.000  0.000  0.000
    3  0.000  0.000  0.000  0.000
    4  0.000  0.000  0.000  0.000
    5  0.000  0.000  0.000  0.000
    6  0.000  0.000  0.000  0.000
    7  0.000  0.000  0.000  0.000
    8  0.000  0.000  0.000  0.000
    9  0.000  0.000  0.000  0.000
   10  0.000  0.000  0.000  0.000
   11  0.000  0.000  0.000  0.000
   12  0.000  0.000  0.000  0.000
   13  0.000  0.000  0.000  0.000
   14  0.000  0.000  0.000  0.000
   15  0.000  0.000  0.000  0.000
   16  0.000  0.000  0.000  0.000
   17  0.000  0.000  0.000  0.000
   18  0.000  0.000  0.000  0.000
   19  0.000  0.000  0.000  0.000
   20  0.000  0.000  0.000  0.000
   21  0.000  0.000  0.000  0.000
   22  0.000  0.000  0.000  0.000
   23  0.000  0.000  0.000  0.000
   24  0.000  0.000  0.000  0.000
   25  0.000  0.000  0.000  0.000
   26  0.000  0.000  0.000  0.000
   27  0.000  0.000  0.000  0.000
   28  0.000  0.000  0.000  0.000
   29  0.000  0.000  0.000  0.000
   30  0.000  0.000  0.001  0.002
   31  0.000  0.000  0.000  0.000
   32  0.000  0.000  0.000  0.000
   33  0.000  0.000  0.001  0.002
   34  0.000  0.000  0.000  0.000
   35  0.000  0.000  0.000  0.000
   36  0.000  0.002  0.020  0.022
   37  0.000  0.116  0.000  0.116
   38  0.000  0.525  0.000  0.525
   39  0.000  0.007  0.000  0.007
tot    0.002  0.652  0.023  0.677
 
band     8 # energy   -6.03501296 # occ.  2.00000000
 
ion      s      p      d    tot
    1  0.015  0.000  0.005  0.020
    2  0.015  0.000  0.005  0.020
    3  0.015  0.000  0.005  0.020
    4  0.015  0.000  0.005  0.020
    5  0.009  0.000  0.006  0.015
    6  0.015  0.000  0.005  0.020
    7  0.015  0.000  0.005  0.020
    8  0.015  0.000  0.005  0.020
    9  0.022  0.000  0.004  0.026
   10  0.003  0.004  0.002  0.008
   11  0.007  0.004  0.001  0.013
   12  0.003  0.004  0.002  0.008
   13  0.007  0.004  0.001  0.013
   14  0.007  0.004  0.001  0.013
   15  0.000  0.003  0.002  0.005
   16  0.003  0.004  0.002  0.008
   17  0.000  0.003  0.002  0.005
   18  0.000  0.003  0.002  0.005
   19  0.003  0.003  0.004  0.010
   20  0.016  0.004  0.006  0.026
   21  0.016  0.004  0.006  0.026
   22  0.001  0.003  0.004  0.008
   23  0.016  0.004  0.006  0.026
   24  0.001  0.003  0.004  0.008
   25  0.003  0.003  0.004  0.010
   26  0.003  0.003  0.004  0.010
   27  0.001  0.003  0.004  0.008
   28  0.017  0.000  0.006  0.023
   29  0.018  0.000  0.008  0.025
   30  0.018  0.000  0.008  0.025
   31  0.018  0.000  0.008  0.025
   32  0.018  0.000  0.008  0.025
   33  0.018  0.000  0.008  0.025
   34  0.018  0.000  0.008  0.025
   35  0.022  0.000  0.005  0.027
   36  0.009  0.001  0.035  0.045
   37  0.000  0.000  0.000  0.001
   38  0.000  0.000  0.000  0.000
   39  0.000  0.000  0.000  0.000
tot    0.381  0.064  0.193  0.639
 
band     9 # energy   -5.92441803 # occ.  2.00000000
 
ion      s      p      d    tot
    1  0.000  0.002  0.005  0.007
    2  0.008  0.002  0.002  0.013
    3  0.001  0.001  0.002  0.004
    4  0.008  0.002  0.002  0.012
    5  0.000  0.002  0.003  0.005
    6  0.003  0.001  0.002  0.007
    7  0.001  0.001  0.002  0.004
    8  0.003  0.001  0.002  0.007
    9  0.000  0.000  0.002  0.002
   10  0.054  0.005  0.003  0.062
   11  0.007  0.009  0.004  0.021
   12  0.013  0.002  0.012  0.027
   13  0.007  0.009  0.004  0.021
   14  0.029  0.001  0.006  0.036
   15  0.001  0.005  0.006  0.012
   16  0.014  0.002  0.011  0.027
   17  0.001  0.005  0.006  0.012
   18  0.004  0.002  0.003  0.009
   19  0.006  0.010  0.003  0.019
   20  0.071  0.003  0.007  0.082
   21  0.018  0.003  0.016  0.036
   22  0.002  0.004  0.009  0.015
   23  0.018  0.003  0.016  0.036
   24  0.009  0.003  0.003  0.015
   25  0.023  0.000  0.007  0.029
   26  0.006  0.010  0.003  0.019
   27  0.002  0.004  0.008  0.015
   28  0.000  0.002  0.003  0.006
   29  0.011  0.003  0.004  0.017
   30  0.003  0.001  0.003  0.007
   31  0.011  0.003  0.004  0.017
   32  0.002  0.001  0.003  0.007
   33  0.003  0.001  0.003  0.007
   34  0.002  0.001  0.003  0.007
   35  0.000  0.000  0.003  0.003
   36  0.000  0.006  0.019  0.025
   37  0.000  0.000  0.000  0.000
   38  0.000  0.001  0.000  0.001
   39  0.000  0.000  0.000  0.000
tot    0.341  0.113  0.194  0.648
 
band    10 # energy   -5.92426332 # occ.  2.00000000
 
ion      s      p      d    tot
    1  0.000  0.002  0.005  0.007
    2  0.000  0.001  0.002  0.003
    3  0.007  0.002  0.002  0.012
    4  0.000  0.001  0.002  0.003
    5  0.000  0.002  0.003  0.005
    6  0.005  0.002  0.002  0.009
    7  0.007  0.002  0.002  0.012
    8  0.005  0.002  0.002  0.009
    9  0.000  0.000  0.002  0.002
   10  0.000  0.001  0.014  0.015
   11  0.022  0.004  0.006  0.031
   12  0.040  0.004  0.006  0.050
   13  0.022  0.003  0.006  0.031
   14  0.000  0.012  0.004  0.016
   15  0.003  0.003  0.004  0.010
   16  0.040  0.004  0.006  0.050
   17  0.003  0.003  0.004  0.010
   18  0.000  0.006  0.007  0.013
   19  0.017  0.004  0.005  0.026
   20  0.000  0.003  0.018  0.021
   21  0.054  0.003  0.010  0.067
   22  0.007  0.003  0.005  0.015
   23  0.053  0.003  0.010  0.066
   24  0.000  0.004  0.010  0.015
   25  0.000  0.013  0.002  0.015
   26  0.017  0.003  0.005  0.026
   27  0.007  0.003  0.005  0.015
   28  0.000  0.002  0.003  0.006
   29  0.000  0.001  0.003  0.003
   30  0.007  0.002  0.004  0.014
   31  0.000  0.001  0.003  0.003
   32  0.009  0.002  0.003  0.014
   33  0.007  0.002  0.004  0.014
   34  0.009  0.002  0.003  0.014
   35  0.000  0.000  0.003  0.003
   36  0.000  0.006  0.019  0.025
   37  0.000  0.000  0.000  0.000
   38  0.000  0.001  0.000  0.001
   39  0.000  0.000  0.000  0.000
tot    0.341  0.113  0.194  0.648
 
band    11 # energy   -5.85377565 # occ.  2.00000000
 
ion      s      p      d    tot
    1  0.000  0.001  0.002  0.003
    2  0.010  0.002  0.002  0.014
    3  0.001  0.001  0.002  0.004
    4  0.010  0.002  0.002  0.014
    5  0.000  0.001  0.004  0.005
    6  0.004  0.001  0.002  0.008
    7  0.001  0.001  0.002  0.004
    8  0.004  0.001  0.002  0.008
    9  0.000  0.003  0.005  0.009
   10  0.000  0.012  0.002  0.014
   11  0.022  0.003  0.005  0.031
   12  0.003  0.003  0.005  0.011
   13  0.022  0.003  0.005  0.031
   14  0.000  0.001  0.014  0.015
   15  0.041  0.004  0.006  0.051
   16  0.003  0.003  0.005  0.011
   17  0.041  0.004  0.006  0.051
   18  0.000  0.007  0.010  0.017
   19  0.030  0.003  0.006  0.039
   20  0.000  0.013  0.002  0.015
   21  0.001  0.004  0.005  0.010
   22  0.040  0.004  0.006  0.050
   23  0.001  0.004  0.005  0.010
   24  0.000  0.009  0.008  0.017
   25  0.000  0.000  0.017  0.017
   26  0.030  0.003  0.006  0.039
   27  0.040  0.004  0.006  0.050
   28  0.000  0.001  0.005  0.006
   29  0.012  0.003  0.003  0.018
   30  0.003  0.002  0.003  0.008
   31  0.012  0.003  0.003  0.018
   32  0.004  0.001  0.003  0.007
   33  0.003  0.002  0.003  0.008
   34  0.004  0.001  0.003  0.007
   35  0.000  0.004  0.005  0.009
   36  0.000  0.001  0.009  0.010
   37  0.000  0.000  0.000  0.000
   38  0.000  0.000  0.000  0.000
   39  0.000  0.000  0.000  0.000
tot    0.342  0.116  0.179  0.637
 
band    12 # energy   -5.85363980 # occ.  2.00000000
 
ion      s      p      d    tot
    1  0.000  0.001  0.002  0.003
    2  0.000  0.001  0.002  0.003
    3  0.008  0.002  0.002  0.013
    4  0.000  0.001  0.002  0.003
    5  0.000  0.001  0.004  0.005
    6  0.006  0.002  0.002  0.010
    7  0.008  0.002  0.002  0.013
    8  0.006  0.002  0.002  0.010
    9  0.000  0.003  0.005  0.009
   10  0.004  0.000  0.006  0.010
   11  0.007  0.002  0.011  0.020
   12  0.001  0.009  0.003  0.013
   13  0.007  0.002  0.011  0.020
   14  0.029  0.004  0.002  0.036
   15  0.014  0.006  0.009  0.028
   16  0.001  0.009  0.003  0.013
   17  0.014  0.006  0.009  0.028
   18  0.055  0.002  0.005  0.063
   19  0.010  0.001  0.013  0.024
   20  0.001  0.001  0.006  0.008
   21  0.000  0.010  0.003  0.013
   22  0.014  0.007  0.007  0.028
   23  0.000  0.010  0.003  0.013
   24  0.054  0.002  0.005  0.061
   25  0.039  0.005  0.002  0.046
   26  0.010  0.001  0.013  0.024
   27  0.014  0.007  0.007  0.028
   28  0.000  0.001  0.005  0.006
   29  0.000  0.001  0.003  0.004
   30  0.010  0.002  0.003  0.014
   31  0.000  0.001  0.003  0.004
   32  0.009  0.003  0.003  0.015
   33  0.010  0.002  0.003  0.014
   34  0.009  0.003  0.003  0.015
   35  0.000  0.004  0.005  0.009
   36  0.000  0.001  0.009  0.010
   37  0.000  0.000  0.000  0.000
   38  0.000  0.000  0.000  0.000
   39  0.000  0.000  0.000  0.000
tot    0.342  0.116  0.179  0.637
 
band    13 # energy   -5.84664410 # occ.  2.00000000
 
ion      s      p      d    tot
    1  0.023  0.003  0.001  0.027
    2  0.000  0.002  0.004  0.006
    3  0.000  0.002  0.004  0.006
    4  0.000  0.002  0.004  0.006
    5  0.002  0.001  0.001  0.003
    6  0.000  0.002  0.004  0.006
    7  0.000  0.002  0.004  0.006
    8  0.000  0.002  0.004  0.006
    9  0.007  0.001  0.000  0.009
   10  0.030  0.006  0.005  0.042
   11  0.008  0.000  0.012  0.020
   12  0.031  0.006  0.005  0.042
   13  0.008  0.000  0.012  0.020
   14  0.008  0.000  0.012  0.020
   15  0.009  0.007  0.004  0.021
   16  0.031  0.006  0.005  0.042
   17  0.009  0.007  0.004  0.021
   18  0.009  0.007  0.004  0.021
   19  0.024  0.009  0.002  0.035
   20  0.000  0.003  0.010  0.014
   21  0.000  0.003  0.011  0.014
   22  0.022  0.002  0.010  0.033
   23  0.000  0.003  0.011  0.014
   24  0.022  0.002  0.010  0.033
   25  0.024  0.009  0.002  0.035
   26  0.024  0.009  0.002  0.035
   27  0.022  0.002  0.010  0.033
   28  0.020  0.003  0.000  0.023
   29  0.000  0.002  0.004  0.006
   30  0.000  0.002  0.004  0.006
   31  0.000  0.002  0.004  0.006
   32  0.000  0.002  0.004  0.006
   33  0.000  0.002  0.004  0.006
   34  0.000  0.002  0.004  0.006
   35  0.010  0.002  0.001  0.013
   36  0.000  0.000  0.000  0.001
   37  0.000  0.000  0.000  0.000
   38  0.000  0.000  0.000  0.000
   39  0.000  0.000  0.000  0.000
tot    0.343  0.114  0.181  0.639
 
band    14 # energy   -5.78992046 # occ.  2.00000000
 
ion      s      p      d    tot
    1  0.000  0.000  0.000  0.000
    2  0.001  0.002  0.005  0.008
    3  0.001  0.002  0.005  0.008
    4  0.001  0.002  0.005  0.008
    5  0.030  0.003  0.000  0.033
    6  0.001  0.002  0.005  0.008
    7  0.001  0.002  0.005  0.008
    8  0.001  0.002  0.005  0.008
    9  0.008  0.002  0.003  0.013
   10  0.001  0.003  0.010  0.014
   11  0.021  0.009  0.003  0.033
   12  0.001  0.003  0.010  0.014
   13  0.021  0.009  0.003  0.033
   14  0.021  0.009  0.003  0.033
   15  0.028  0.002  0.010  0.040
   16  0.001  0.003  0.010  0.014
   17  0.028  0.002  0.010  0.040
   18  0.028  0.002  0.010  0.040
   19  0.006  0.001  0.009  0.016
   20  0.020  0.004  0.008  0.032
   21  0.020  0.004  0.008  0.032
   22  0.011  0.007  0.003  0.021
   23  0.020  0.004  0.008  0.032
   24  0.011  0.007  0.003  0.021
   25  0.006  0.001  0.009  0.016
   26  0.006  0.001  0.009  0.016
   27  0.011  0.007  0.003  0.021
   28  0.000  0.000  0.002  0.002
   29  0.001  0.001  0.005  0.007
   30  0.001  0.001  0.005  0.007
   31  0.001  0.001  0.005  0.007
   32  0.001  0.001  0.005  0.007
   33  0.001  0.001  0.005  0.007
   34  0.001  0.001  0.005  0.007
   35  0.002  0.001  0.001  0.004
   36  0.012  0.012  0.015  0.038
   37  0.008  0.005  0.000  0.013
   38  0.001  0.001  0.000  0.002
   39  0.000  0.000  0.000  0.000
tot    0.333  0.124  0.208  0.665
 
band    15 # energy   -5.17402262 # occ.  2.00000000
 
ion      s      p      d    tot
    1  0.002  0.001  0.011  0.015
    2  0.006  0.001  0.010  0.017
    3  0.006  0.001  0.010  0.017
    4  0.006  0.001  0.010  0.017
    5  0.006  0.000  0.009  0.016
    6  0.006  0.001  0.010  0.017
    7  0.006  0.001  0.010  0.017
    8  0.006  0.001  0.010  0.017
    9  0.011  0.000  0.009  0.021
   10  0.011  0.000  0.025  0.036
   11  0.006  0.000  0.023  0.029
   12  0.011  0.000  0.025  0.036
   13  0.006  0.000  0.023  0.029
   14  0.007  0.000  0.023  0.029
   15  0.005  0.000  0.023  0.028
   16  0.011  0.000  0.025  0.036
   17  0.006  0.000  0.023  0.028
   18  0.005  0.000  0.023  0.028
   19  0.007  0.000  0.018  0.025
   20  0.006  0.000  0.031  0.037
   21  0.006  0.000  0.031  0.037
   22  0.003  0.000  0.016  0.019
   23  0.006  0.000  0.031  0.037
   24  0.004  0.000  0.016  0.019
   25  0.007  0.000  0.018  0.025
   26  0.007  0.000  0.018  0.025
   27  0.003  0.000  0.016  0.019
   28  0.000  0.001  0.005  0.006
   29  0.003  0.001  0.007  0.011
   30  0.003  0.001  0.007  0.011
   31  0.003  0.001  0.007  0.011
   32  0.003  0.001  0.007  0.011
   33  0.003  0.001  0.007  0.011
   34  0.003  0.001  0.007  0.011
   35  0.003  0.000  0.005  0.008
   36  0.006  0.001  0.018  0.026
   37  0.000  0.000  0.000  0.000
   38  0.000  0.000  0.000  0.000
   39  0.000  0.000  0.000  0.000
tot    0.203  0.014  0.564  0.781
 
band    16 # energy   -5.16967593 # occ.  2.00000000
 
ion      s      p      d    tot
    1  0.000  0.002  0.009  0.011
    2  0.018  0.003  0.005  0.026
    3  0.003  0.002  0.004  0.009
    4  0.018  0.003  0.005  0.026
    5  0.000  0.001  0.008  0.009
    6  0.006  0.002  0.005  0.013
    7  0.003  0.002  0.004  0.009
    8  0.006  0.002  0.005  0.013
    9  0.000  0.005  0.008  0.013
   10  0.000  0.005  0.013  0.018
   11  0.008  0.002  0.008  0.018
   12  0.002  0.001  0.008  0.012
   13  0.008  0.002  0.008  0.018
   14  0.000  0.001  0.015  0.016
   15  0.018  0.003  0.008  0.029
   16  0.002  0.001  0.008  0.012
   17  0.018  0.003  0.008  0.029
   18  0.000  0.001  0.020  0.021
   19  0.006  0.004  0.009  0.018
   20  0.000  0.004  0.030  0.034
   21  0.000  0.001  0.016  0.017
   22  0.010  0.004  0.009  0.023
   23  0.000  0.001  0.016  0.017
   24  0.000  0.001  0.025  0.026
   25  0.000  0.000  0.010  0.010
   26  0.006  0.004  0.009  0.018
   27  0.010  0.004  0.009  0.023
   28  0.000  0.003  0.008  0.011
   29  0.025  0.003  0.009  0.037
   30  0.002  0.003  0.011  0.016
   31  0.025  0.003  0.009  0.037
   32  0.013  0.001  0.009  0.023
   33  0.002  0.003  0.011  0.016
   34  0.013  0.001  0.009  0.023
   35  0.000  0.006  0.007  0.013
   36  0.000  0.001  0.042  0.043
   37  0.000  0.000  0.000  0.000
   38  0.000  0.000  0.000  0.000
   39  0.000  0.000  0.000  0.000
tot    0.222  0.089  0.395  0.706
 
band    17 # energy   -5.16960105 # occ.  2.00000000
 
ion      s      p      d    tot
    1  0.000  0.002  0.009  0.011
    2  0.000  0.001  0.004  0.006
    3  0.015  0.003  0.005  0.023
    4  0.000  0.001  0.004  0.006
    5  0.000  0.001  0.008  0.009
    6  0.012  0.003  0.004  0.019
    7  0.015  0.003  0.005  0.023
    8  0.012  0.003  0.004  0.019
    9  0.000  0.005  0.008  0.013
   10  0.003  0.000  0.007  0.010
   11  0.003  0.001  0.013  0.017
   12  0.001  0.004  0.012  0.016
   13  0.003  0.001  0.013  0.017
   14  0.010  0.003  0.006  0.019
   15  0.006  0.002  0.016  0.023
   16  0.001  0.004  0.012  0.016
   17  0.006  0.002  0.016  0.024
   18  0.024  0.004  0.004  0.032
   19  0.002  0.001  0.009  0.013
   20  0.000  0.000  0.011  0.011
   21  0.000  0.003  0.025  0.028
   22  0.003  0.002  0.020  0.025
   23  0.000  0.003  0.025  0.028
   24  0.013  0.005  0.003  0.021
   25  0.008  0.005  0.009  0.021
   26  0.002  0.001  0.009  0.013
   27  0.003  0.002  0.020  0.025
   28  0.000  0.003  0.008  0.011
   29  0.002  0.002  0.010  0.013
   30  0.024  0.002  0.008  0.035
   31  0.002  0.002  0.010  0.013
   32  0.014  0.004  0.010  0.027
   33  0.024  0.002  0.008  0.035
   34  0.014  0.004  0.010  0.028
   35  0.000  0.006  0.007  0.013
   36  0.000  0.001  0.042  0.043
   37  0.000  0.000  0.000  0.000
   38  0.000  0.000  0.000  0.000
   39  0.000  0.000  0.000  0.000
tot    0.222  0.089  0.395  0.706
 
band    18 # energy   -5.12465090 # occ.  2.00000000
 
ion      s      p      d    tot
    1  0.000  0.005  0.010  0.014
    2  0.023  0.004  0.006  0.033
    3  0.004  0.002  0.005  0.012
    4  0.023  0.004  0.006  0.033
    5  0.000  0.005  0.011  0.016
    6  0.007  0.003  0.006  0.016
    7  0.004  0.002  0.005  0.012
    8  0.007  0.003  0.006  0.016
    9  0.000  0.000  0.013  0.013
   10  0.024  0.005  0.007  0.037
   11  0.004  0.003  0.020  0.027
   12  0.006  0.001  0.019  0.027
   13  0.004  0.003  0.020  0.027
   14  0.015  0.002  0.006  0.023
   15  0.000  0.003  0.014  0.017
   16  0.006  0.001  0.019  0.027
   17  0.000  0.003  0.014  0.017
   18  0.001  0.001  0.009  0.011
   19  0.001  0.002  0.019  0.022
   20  0.019  0.006  0.005  0.030
   21  0.005  0.002  0.023  0.029
   22  0.001  0.002  0.011  0.013
   23  0.005  0.002  0.023  0.029
   24  0.003  0.002  0.010  0.014
   25  0.005  0.001  0.005  0.011
   26  0.001  0.002  0.019  0.023
   27  0.001  0.002  0.011  0.013
   28  0.000  0.003  0.009  0.012
   29  0.017  0.004  0.006  0.027
   30  0.003  0.001  0.005  0.009
   31  0.017  0.004  0.006  0.027
   32  0.006  0.002  0.006  0.014
   33  0.003  0.001  0.005  0.009
   34  0.006  0.002  0.006  0.014
   35  0.000  0.000  0.009  0.009
   36  0.000  0.007  0.019  0.026
   37  0.000  0.000  0.000  0.000
   38  0.000  0.000  0.000  0.000
   39  0.000  0.000  0.000  0.000
tot    0.222  0.096  0.392  0.709
 
band    19 # energy   -5.12455205 # occ.  2.00000000
 
ion      s      p      d    tot
    1  0.000  0.005  0.010  0.014
    2  0.000  0.002  0.006  0.007
    3  0.019  0.004  0.006  0.028
    4  0.000  0.002  0.006  0.007
    5  0.000  0.005  0.011  0.016
    6  0.016  0.003  0.006  0.024
    7  0.019  0.004  0.006  0.028
    8  0.015  0.003  0.006  0.024
    9  0.000  0.000  0.013  0.013
   10  0.000  0.000  0.023  0.023
   11  0.011  0.003  0.011  0.025
   12  0.018  0.004  0.011  0.034
   13  0.012  0.003  0.010  0.024
   14  0.000  0.003  0.025  0.029
   15  0.001  0.002  0.011  0.013
   16  0.018  0.004  0.011  0.034
   17  0.001  0.002  0.011  0.013
   18  0.000  0.003  0.015  0.019
   19  0.004  0.001  0.010  0.015
   20  0.000  0.000  0.029  0.029
   21  0.014  0.005  0.011  0.030
   22  0.002  0.002  0.010  0.013
   23  0.014  0.005  0.011  0.030
   24  0.000  0.001  0.011  0.013
   25  0.000  0.002  0.024  0.026
   26  0.004  0.001  0.010  0.015
   27  0.002  0.002  0.010  0.013
   28  0.000  0.003  0.009  0.012
   29  0.000  0.001  0.005  0.007
   30  0.015  0.003  0.007  0.025
   31  0.000  0.001  0.005  0.007
   32  0.011  0.003  0.005  0.019
   33  0.014  0.003  0.007  0.025
   34  0.011  0.003  0.005  0.019
   35  0.000  0.000  0.009  0.009
   36  0.000  0.007  0.019  0.026
   37  0.000  0.000  0.000  0.000
   38  0.000  0.000  0.000  0.000
   39  0.000  0.000  0.000  0.000
tot    0.222  0.096  0.392  0.709
 
band    20 # energy   -5.09322539 # occ.  2.00000000
 
ion      s      p      d    tot
    1  0.039  0.003  0.000  0.043
    2  0.000  0.003  0.010  0.013
    3  0.000  0.003  0.010  0.013
    4  0.000  0.003  0.010  0.013
    5  0.000  0.000  0.001  0.001
    6  0.000  0.003  0.010  0.013
    7  0.000  0.003  0.010  0.013
    8  0.000  0.003  0.010  0.013
    9  0.024  0.003  0.001  0.028
   10  0.007  0.004  0.012  0.023
   11  0.002  0.000  0.014  0.017
   12  0.007  0.004  0.012  0.023
   13  0.002  0.000  0.014  0.017
   14  0.002  0.000  0.014  0.017
   15  0.006  0.003  0.017  0.027
   16  0.007  0.004  0.012  0.023
   17  0.006  0.003  0.017  0.027
   18  0.006  0.003  0.017  0.027
   19  0.005  0.004  0.016  0.025
   20  0.000  0.000  0.017  0.018
   21  0.000  0.000  0.017  0.018
   22  0.012  0.003  0.010  0.025
   23  0.000  0.000  0.017  0.018
   24  0.012  0.003  0.010  0.025
   25  0.005  0.004  0.016  0.025
   26  0.005  0.004  0.016  0.025
   27  0.012  0.003  0.010  0.025
   28  0.041  0.003  0.000  0.044
   29  0.000  0.003  0.011  0.014
   30  0.000  0.003  0.011  0.014
   31  0.000  0.003  0.011  0.014
   32  0.000  0.003  0.011  0.014
   33  0.000  0.003  0.011  0.014
   34  0.000  0.003  0.011  0.014
   35  0.022  0.003  0.002  0.026
   36  0.001  0.001  0.000  0.001
   37  0.000  0.000  0.000  0.000
   38  0.000  0.000  0.000  0.000
   39  0.000  0.000  0.000  0.000