 vasp.6.2.0 18Jan21 (build Jun 12 2021 23:27:24) complex                        
  
 executed on             LinuxIFC date 2022.05.28  02:44:33
 running on   28 total cores
 distrk:  each k-point on   28 cores,    1 groups
 distr:  one band on NCORE=   1 cores,   28 groups


--------------------------------------------------------------------------------------------------------


 INCAR:
   ISMEAR = -5
   SIGMA = 0.1
   ISPIN = 1
   EDIFF = 1.d-5
   EDIFFG = -0.01
   NSW = 0
   NELM = 150
   ENCUT = 500
   ISIF = 2
   IBRION = 2
   LREAL = Auto
   ALGO = Fast
   ICHARG = 11
   LORBIT = 10
   LCHARG = .F.
   LWAVE = .F.

 POTCAR:    PAW_PBE Cu 22Jun2005                  
 POTCAR:    PAW_PBE Ta 17Jan2003                  
 POTCAR:    PAW_PBE H 15Jun2001                   
 POTCAR:    PAW_PBE O 08Apr2002                   
 -----------------------------------------------------------------------------
|                                                                             |
|           W    W    AA    RRRRR   N    N  II  N    N   GGGG   !!!           |
|           W    W   A  A   R    R  NN   N  II  NN   N  G    G  !!!           |
|           W    W  A    A  R    R  N N  N  II  N N  N  G       !!!           |
|           W WW W  AAAAAA  RRRRR   N  N N  II  N  N N  G  GGG   !            |
|           WW  WW  A    A  R   R   N   NN  II  N   NN  G    G                |
|           W    W  A    A  R    R  N    N  II  N    N   GGGG   !!!           |
|                                                                             |
|     For optimal performance we recommend to set                             |
|       NCORE = 2 up to number-of-cores-per-socket                            |
|     NCORE specifies how many cores store one orbital (NPAR=cpu/NCORE).      |
|     This setting can greatly improve the performance of VASP for DFT.       |
|     The default, NCORE=1 might be grossly inefficient on modern             |
|     multi-core architectures or massively parallel machines. Do your        |
|     own testing! More info at https://www.vasp.at/wiki/index.php/NCORE      |
|     Unfortunately you need to use the default for GW and RPA                |
|     calculations (for HF NCORE is supported but not extensively tested      |
|     yet).                                                                   |
|                                                                             |
 -----------------------------------------------------------------------------

 POTCAR:    PAW_PBE Cu 22Jun2005                  
   VRHFIN =Cu: d10 p1                                                                               
   LEXCH  = PE                                                                                      
   EATOM  =  1390.9808 eV,  102.2342 Ry                                                             
                                                                                                    
   TITEL  = PAW_PBE Cu 22Jun2005                                                                    
   LULTRA =        F    use ultrasoft PP ?                                                          
   IUNSCR =        1    unscreen: 0-lin 1-nonlin 2-no                                               
   RPACOR =    2.000    partial core radius                                                         
   POMASS =   63.546; ZVAL   =   11.000    mass and valenz                                          
   RCORE  =    2.300    outmost cutoff radius                                                       
   RWIGS  =    2.200; RWIGS  =    1.164    wigner-seitz radius (au A)                               
   ENMAX  =  295.446; ENMIN  =  221.585 eV                                                          
   ICORE  =        3    local potential                                                             
   LCOR   =        T    correct aug charges                                                         
   LPAW   =        T    paw PP                                                                      
   EAUG   =  586.980                                                                                
   DEXC   =    0.000                                                                                
   RMAX   =    2.344    core radius for proj-oper                                                   
   RAUG   =    1.300    factor for augmentation sphere                                              
   RDEP   =    2.302    radius for radial grids                                                     
   RDEPT  =    1.771    core radius for aug-charge                                                  
                                                                                                    
   Atomic configuration                                                                             
    9 entries                                                                                       
     n  l   j            E        occ.                                                              
     1  0  0.50     -8850.2468   2.0000                                                             
     2  0  0.50     -1062.3498   2.0000                                                             
     2  1  1.50      -916.8226   6.0000                                                             
     3  0  0.50      -114.6929   2.0000                                                             
     3  1  1.50       -72.1325   6.0000                                                             
     3  2  2.50        -5.0394  10.0000                                                             
     4  0  0.50        -4.6097   1.0000                                                             
     4  1  0.50        -4.0817   0.0000                                                             
     4  3  2.50        -1.3606   0.0000                                                             
   Description                                                                                      
     l       E           TYP  RCUT    TYP  RCUT                                                     
     2     -5.0393973     23  2.200                                                                 
     2     10.8846608     23  2.200                                                                 
     0     -4.6097109     23  2.200                                                                 
     0      8.2520465     23  2.200                                                                 
     1     -2.7211652     23  2.200                                                                 
     1     21.7055443     23  2.200                                                                 
     3      2.7211652     23  2.300                                                                 
  local pseudopotential read in
  partial core-charges read in
  partial kinetic energy density read in
  atomic valenz-charges read in
  non local Contribution for L=           2  read in
    real space projection operators read in
  non local Contribution for L=           2  read in
    real space projection operators read in
  non local Contribution for L=           0  read in
    real space projection operators read in
  non local Contribution for L=           0  read in
    real space projection operators read in
  non local Contribution for L=           1  read in
    real space projection operators read in
  non local Contribution for L=           1  read in
    real space projection operators read in
    PAW grid and wavefunctions read in
 
   number of l-projection  operators is LMAX  =           6
   number of lm-projection operators is LMMAX =          18
 
 POTCAR:    PAW_PBE Ta 17Jan2003                  
   VRHFIN =Ta:  6s5d                                                                                
   LEXCH  = PE                                                                                      
   EATOM  =   130.6506 eV,    9.6025 Ry                                                             
                                                                                                    
   TITEL  = PAW_PBE Ta 17Jan2003                                                                    
   LULTRA =        F    use ultrasoft PP ?                                                          
   IUNSCR =        1    unscreen: 0-lin 1-nonlin 2-no                                               
   RPACOR =    2.330    partial core radius                                                         
   POMASS =  180.948; ZVAL   =    5.000    mass and valenz                                          
   RCORE  =    2.900    outmost cutoff radius                                                       
   RWIGS  =    2.840; RWIGS  =    1.503    wigner-seitz radius (au A)                               
   ENMAX  =  223.667; ENMIN  =  167.750 eV                                                          
   RCLOC  =    2.205    cutoff for local pot                                                        
   LCOR   =        T    correct aug charges                                                         
   LPAW   =        T    paw PP                                                                      
   EAUG   =  332.075                                                                                
   DEXC   =    0.000                                                                                
   RMAX   =    2.970    core radius for proj-oper                                                   
   RAUG   =    1.300    factor for augmentation sphere                                              
   RDEP   =    3.060    radius for radial grids                                                     
   RDEPT  =    2.354    core radius for aug-charge                                                  
                                                                                                    
   Atomic configuration                                                                             
   16 entries                                                                                       
     n  l   j            E        occ.                                                              
     1  0  0.50    -67341.2807   2.0000                                                             
     2  0  0.50    -11566.9376   2.0000                                                             
     2  1  1.50    -10134.1182   6.0000                                                             
     3  0  0.50     -2648.5620   2.0000                                                             
     3  1  1.50     -2222.6012   6.0000                                                             
     3  2  2.50     -1726.3120  10.0000                                                             
     4  0  0.50      -538.6961   2.0000                                                             
     4  1  1.50      -399.0129   6.0000                                                             
     4  2  2.50      -220.3959  10.0000                                                             
     4  3  3.50       -23.0374  14.0000                                                             
     5  0  0.50       -71.2901   2.0000                                                             
     5  1  1.50       -37.8225   6.0000                                                             
     5  2  2.50        -2.6455   4.0000                                                             
     6  0  0.50        -4.9623   1.0000                                                             
     6  1  1.50        -1.3606   0.0000                                                             
     5  3  2.50        -1.3606   0.0000                                                             
   Description                                                                                      
     l       E           TYP  RCUT    TYP  RCUT                                                     
     2     -2.6455043     23  2.500                                                                 
     2     -0.6258895     23  2.500                                                                 
     0     -4.9622780     23  2.500                                                                 
     0      4.7531321     23  2.500                                                                 
     1     -1.3605826     23  2.900                                                                 
     1     27.2116520     23  2.900                                                                 
  local pseudopotential read in
  partial core-charges read in
  partial kinetic energy density read in
  atomic valenz-charges read in
  non local Contribution for L=           2  read in
    real space projection operators read in
  non local Contribution for L=           2  read in
    real space projection operators read in
  non local Contribution for L=           0  read in
    real space projection operators read in
  non local Contribution for L=           0  read in
    real space projection operators read in
  non local Contribution for L=           1  read in
    real space projection operators read in
  non local Contribution for L=           1  read in
    real space projection operators read in
    PAW grid and wavefunctions read in
 
   number of l-projection  operators is LMAX  =           6
   number of lm-projection operators is LMMAX =          18
 
 POTCAR:    PAW_PBE H 15Jun2001                   
   VRHFIN =H: ultrasoft test                                                                        
   LEXCH  = PE                                                                                      
   EATOM  =    12.4884 eV,    0.9179 Ry                                                             
                                                                                                    
   TITEL  = PAW_PBE H 15Jun2001                                                                     
   LULTRA =        F    use ultrasoft PP ?                                                          
   IUNSCR =        0    unscreen: 0-lin 1-nonlin 2-no                                               
   RPACOR =    0.000    partial core radius                                                         
   POMASS =    1.000; ZVAL   =    1.000    mass and valenz                                          
   RCORE  =    1.100    outmost cutoff radius                                                       
   RWIGS  =    0.700; RWIGS  =    0.370    wigner-seitz radius (au A)                               
   ENMAX  =  250.000; ENMIN  =  200.000 eV                                                          
   RCLOC  =    0.701    cutoff for local pot                                                        
   LCOR   =        T    correct aug charges                                                         
   LPAW   =        T    paw PP                                                                      
   EAUG   =  400.000                                                                                
   RMAX   =    1.123    core radius for proj-oper                                                   
   RAUG   =    1.200    factor for augmentation sphere                                              
   RDEP   =    1.112    radius for radial grids                                                     
   RDEPT  =    0.926    core radius for aug-charge                                                  
                                                                                                    
   Atomic configuration                                                                             
    2 entries                                                                                       
     n  l   j            E        occ.                                                              
     1  0  0.50        -6.4927   1.0000                                                             
     2  1  0.50        -3.4015   0.0000                                                             
   Description                                                                                      
     l       E           TYP  RCUT    TYP  RCUT                                                     
     0     -6.4927494     23  1.100                                                                 
     0      6.8029130     23  1.100                                                                 
     1     -4.0817478     23  1.100                                                                 
  local pseudopotential read in
  atomic valenz-charges read in
  non local Contribution for L=           0  read in
    real space projection operators read in
  non local Contribution for L=           0  read in
    real space projection operators read in
  non local Contribution for L=           1  read in
    real space projection operators read in
    PAW grid and wavefunctions read in
 
   number of l-projection  operators is LMAX  =           3
   number of lm-projection operators is LMMAX =           5
 
 POTCAR:    PAW_PBE O 08Apr2002                   
   VRHFIN =O: s2p4                                                                                  
   LEXCH  = PE                                                                                      
   EATOM  =   432.3788 eV,   31.7789 Ry                                                             
                                                                                                    
   TITEL  = PAW_PBE O 08Apr2002                                                                     
   LULTRA =        F    use ultrasoft PP ?                                                          
   IUNSCR =        1    unscreen: 0-lin 1-nonlin 2-no                                               
   RPACOR =    1.200    partial core radius                                                         
   POMASS =   16.000; ZVAL   =    6.000    mass and valenz                                          
   RCORE  =    1.520    outmost cutoff radius                                                       
   RWIGS  =    1.550; RWIGS  =    0.820    wigner-seitz radius (au A)                               
   ENMAX  =  400.000; ENMIN  =  300.000 eV                                                          
   ICORE  =        2    local potential                                                             
   LCOR   =        T    correct aug charges                                                         
   LPAW   =        T    paw PP                                                                      
   EAUG   =  605.392                                                                                
   DEXC   =    0.000                                                                                
   RMAX   =    1.553    core radius for proj-oper                                                   
   RAUG   =    1.300    factor for augmentation sphere                                              
   RDEP   =    1.550    radius for radial grids                                                     
   RDEPT  =    1.329    core radius for aug-charge                                                  
                                                                                                    
   Atomic configuration                                                                             
    4 entries                                                                                       
     n  l   j            E        occ.                                                              
     1  0  0.50      -514.6923   2.0000                                                             
     2  0  0.50       -23.9615   2.0000                                                             
     2  1  0.50        -9.0305   4.0000                                                             
     3  2  1.50        -9.5241   0.0000                                                             
   Description                                                                                      
     l       E           TYP  RCUT    TYP  RCUT                                                     
     0    -23.9615318     23  1.200                                                                 
     0     -9.5240782     23  1.200                                                                 
     1     -9.0304911     23  1.520                                                                 
     1      8.1634956     23  1.520                                                                 
     2     -9.5240782      7  1.500                                                                 
  local pseudopotential read in
  partial core-charges read in
  partial kinetic energy density read in
  kinetic energy density of atom read in
  atomic valenz-charges read in
  non local Contribution for L=           0  read in
    real space projection operators read in
  non local Contribution for L=           0  read in
    real space projection operators read in
  non local Contribution for L=           1  read in
    real space projection operators read in
  non local Contribution for L=           1  read in
    real space projection operators read in
    PAW grid and wavefunctions read in
 
   number of l-projection  operators is LMAX  =           4
   number of lm-projection operators is LMMAX =           8
 
 Optimization of the real space projectors (new method)

 maximal supplied QI-value         = 16.25
 optimisation between [QCUT,QGAM] = [ 11.38, 22.75] = [ 36.24,144.96] Ry 
 Optimized for a Real-space Cutoff    1.52 Angstroem

   l    n(q)    QCUT    max X(q) W(low)/X(q) W(high)/X(q)  e(spline) 
   2      9    11.376     4.610    0.21E-03    0.10E-03    0.26E-06
   2      9    11.376     8.522    0.33E-03    0.16E-03    0.37E-06
   0     10    11.376    51.609    0.62E-04    0.20E-04    0.13E-06
   0     10    11.376    27.747    0.54E-04    0.20E-04    0.13E-06
   1     10    11.376    20.408    0.13E-04    0.99E-04    0.19E-06
   1     10    11.376    13.425    0.12E-04    0.87E-04    0.17E-06
 Optimization of the real space projectors (new method)

 maximal supplied QI-value         = 12.85
 optimisation between [QCUT,QGAM] = [ 11.44, 22.87] = [ 36.63,146.51] Ry 
 Optimized for a Real-space Cutoff    1.61 Angstroem

   l    n(q)    QCUT    max X(q) W(low)/X(q) W(high)/X(q)  e(spline) 
   2     10    11.437    62.315    0.14E-03    0.26E-03    0.80E-06
   2     10    11.437    52.185    0.14E-03    0.26E-03    0.80E-06
   0     11    11.437   103.837    0.25E-04    0.17E-04    0.84E-07
   0     11    11.437    59.728    0.20E-04    0.15E-04    0.73E-07
   1     11    11.437    13.958    0.47E-03    0.12E-03    0.89E-06
   1     11    11.437     8.441    0.33E-03    0.88E-04    0.61E-06
 Optimization of the real space projectors (new method)

 maximal supplied QI-value         = 34.20
 optimisation between [QCUT,QGAM] = [ 11.29, 22.57] = [ 35.68,142.71] Ry 
 Optimized for a Real-space Cutoff    1.16 Angstroem

   l    n(q)    QCUT    max X(q) W(low)/X(q) W(high)/X(q)  e(spline) 
   0      8    11.287    19.460    0.40E-03    0.73E-03    0.16E-06
   0      8    11.287    12.209    0.38E-03    0.70E-03    0.15E-06
   1      7    11.287     4.655    0.22E-03    0.25E-04    0.22E-06
 Optimization of the real space projectors (new method)

 maximal supplied QI-value         = 24.76
 optimisation between [QCUT,QGAM] = [ 11.39, 22.77] = [ 36.31,145.25] Ry 
 Optimized for a Real-space Cutoff    1.00 Angstroem

   l    n(q)    QCUT    max X(q) W(low)/X(q) W(high)/X(q)  e(spline) 
   0      7    11.387    20.381    0.39E-03    0.13E-02    0.15E-06
   0      7    11.387    15.268    0.42E-03    0.14E-02    0.17E-06
   1      6    11.387     5.964    0.41E-03    0.11E-02    0.17E-06
   1      6    11.387     5.382    0.39E-03    0.87E-03    0.15E-06
  PAW_PBE Cu 22Jun2005                  :
 energy of atom  1       EATOM=-1390.9808
 kinetic energy error for atom=    0.0043 (will be added to EATOM!!)
  PAW_PBE Ta 17Jan2003                  :
 energy of atom  2       EATOM= -130.6506
 kinetic energy error for atom=    0.0012 (will be added to EATOM!!)
  PAW_PBE H 15Jun2001                   :
 energy of atom  3       EATOM=  -12.4884
 kinetic energy error for atom=    0.0020 (will be added to EATOM!!)
  PAW_PBE O 08Apr2002                   :
 energy of atom  4       EATOM= -432.3788
 kinetic energy error for atom=    0.0224 (will be added to EATOM!!)
 
 
 POSCAR: Cu-Ta-H2O
  positions in direct lattice
  velocities in cartesian coordinates
 exchange correlation table for  LEXCH =        8
   RHO(1)=    0.500       N(1)  =     2000
   RHO(2)=  100.500       N(2)  =     4000

 VTST: version 3.2, (02/03/18)

 CHAIN: initializing optimizer
 
 OPT: Using VASP Conjugate-Gradient optimizer
 CHAIN: Read ICHAIN            0
 
 POSCAR: Cu-Ta-H2O
  positions in direct lattice
  velocities in cartesian coordinates
 


--------------------------------------------------------------------------------------------------------


 ion  position               nearest neighbor table
   1  0.000  0.000  0.221-   7 2.57   3 2.57   4 2.57   2 2.57   6 2.57   8 2.57  12 2.57  10 2.57
                            16 2.57
   2  0.333  0.000  0.221-   8 2.57   9 2.57   5 2.57   1 2.57   3 2.57  11 2.57   4 2.57  10 2.57
                            17 2.57
   3  0.667  0.000  0.221-   1 2.57   7 2.57   6 2.57   9 2.57   2 2.57  12 2.57   5 2.57  18 2.57
                            11 2.57
   4  0.000  0.333  0.221-   5 2.57   6 2.57   1 2.57   7 2.57   2 2.57  13 2.57   9 2.57  10 2.57
                            15 2.57
   5  0.333  0.333  0.221-   4 2.57   2 2.57   7 2.57  13 2.57   8 2.57   6 2.57   3 2.57  11 2.57
                            14 2.57
   6  0.667  0.333  0.221-   4 2.57   9 2.57  15 2.57   3 2.57   1 2.57   8 2.57  14 2.57   5 2.57
                            12 2.57
   7  0.000  0.667  0.221-   1 2.57   3 2.57  16 2.57  18 2.57   4 2.57   5 2.57   8 2.57   9 2.57
                            13 2.57
   8  0.333  0.667  0.221-   9 2.57   2 2.57  17 2.57   6 2.57   1 2.57   7 2.57   5 2.57  14 2.57
                            16 2.57
   9  0.667  0.667  0.221-   8 2.57   6 2.57   2 2.57  17 2.57   3 2.57   7 2.57   4 2.57  15 2.57
                            18 2.57
  10  0.111  0.111  0.308-  20 2.55  26 2.56  19 2.56  11 2.57  12 2.57  13 2.57   1 2.57   2 2.57
                             4 2.57  15 2.57  16 2.57  17 2.57
  11  0.444  0.111  0.308-  20 2.56  21 2.56  10 2.57  13 2.57   2 2.57  17 2.57  14 2.57  12 2.57
                             5 2.57   3 2.57  18 2.57  27 2.57
  12  0.778  0.111  0.308-  21 2.55  19 2.56  25 2.56  15 2.57  10 2.57  14 2.57  18 2.57   3 2.57
                             1 2.57  16 2.57  11 2.57   6 2.57
  13  0.111  0.444  0.308-  23 2.56  20 2.56  16 2.57  18 2.57  10 2.57  11 2.57  14 2.57   5 2.57
                             4 2.57   7 2.57  15 2.57  22 2.57
  14  0.444  0.444  0.308-  21 2.56  23 2.56  15 2.57  17 2.57  12 2.57  16 2.57  13 2.57  11 2.57
                             6 2.57   8 2.57   5 2.57  24 2.57
  15  0.778  0.444  0.308-  19 2.56  14 2.57  17 2.57  12 2.57   6 2.57  18 2.57  10 2.57   9 2.57
                            13 2.57   4 2.57  24 2.57  22 2.57
  16  0.111  0.778  0.308-  23 2.55  25 2.56  26 2.56  18 2.57  13 2.57   7 2.57  14 2.57  17 2.57
                            12 2.57  10 2.57   8 2.57   1 2.57
  17  0.444  0.778  0.308-  26 2.56  14 2.57  15 2.57   8 2.57   9 2.57  11 2.57  16 2.57  18 2.57
                            10 2.57   2 2.57  27 2.57  24 2.57
  18  0.778  0.778  0.308-  25 2.56  16 2.57  13 2.57   7 2.57  15 2.57  12 2.57  17 2.57   9 2.57
                             3 2.57  11 2.57  22 2.57  27 2.57
  19  0.889  0.222  0.394-  12 2.56  10 2.56  15 2.56  21 2.56  20 2.56  25 2.56  26 2.56  22 2.57
                            24 2.57  28 2.57  32 2.59  31 2.59
  20  0.222  0.222  0.393-  10 2.55  11 2.56  13 2.56  26 2.56  19 2.56  27 2.57  22 2.57  23 2.58
                            21 2.58  36 2.61  29 2.61  31 2.61
  21  0.557  0.222  0.393-  12 2.55  14 2.56  11 2.56  19 2.56  25 2.56  24 2.57  27 2.57  20 2.58
                            23 2.58  36 2.61  32 2.61  30 2.61
  22  0.888  0.556  0.394-  24 2.56  27 2.56  19 2.57  25 2.57  23 2.57  20 2.57  18 2.57  15 2.57
                            35 2.57  13 2.57  31 2.59  33 2.59
  23  0.222  0.557  0.393-  16 2.55  13 2.56  14 2.56  25 2.56  26 2.56  22 2.57  24 2.57  20 2.58
                            21 2.58  36 2.61  33 2.61  34 2.61
  24  0.556  0.556  0.394-  22 2.56  27 2.56  19 2.57  26 2.57  21 2.57  23 2.57  15 2.57  17 2.57
                            35 2.57  14 2.57  32 2.59  34 2.59
  25  0.889  0.889  0.394-  12 2.56  16 2.56  18 2.56  21 2.56  23 2.56  19 2.56  26 2.56  22 2.57
                            27 2.57  28 2.57  33 2.59  30 2.59
  26  0.222  0.889  0.394-  10 2.56  16 2.56  17 2.56  20 2.56  23 2.56  25 2.56  19 2.56  27 2.57
                            24 2.57  28 2.57  29 2.59  34 2.59
  27  0.556  0.888  0.394-  24 2.56  22 2.56  26 2.57  25 2.57  20 2.57  21 2.57  17 2.57  18 2.57
                            35 2.57  11 2.57  29 2.59  30 2.59
  28  0.000  0.000  0.480-  33 2.55  30 2.55  31 2.55  29 2.55  32 2.55  34 2.55  25 2.57  19 2.57
                            26 2.57
  29  0.333  0.997  0.482-  34 2.52  35 2.55  28 2.55  31 2.59  27 2.59  36 2.59  30 2.59  26 2.59
                            20 2.61
  30  0.670  0.997  0.482-  33 2.52  35 2.55  28 2.55  32 2.59  27 2.59  36 2.59  29 2.59  25 2.59
                            21 2.61
  31  0.997  0.333  0.482-  32 2.52  35 2.55  28 2.55  29 2.59  22 2.59  36 2.59  33 2.59  19 2.59
                            20 2.61
  32  0.670  0.333  0.482-  31 2.52  35 2.55  28 2.55  30 2.59  24 2.59  36 2.59  34 2.59  19 2.59
                            21 2.61
  33  0.997  0.670  0.482-  30 2.52  35 2.55  28 2.55  34 2.59  22 2.59  36 2.59  31 2.59  25 2.59
                            23 2.61
  34  0.333  0.670  0.482-  29 2.52  35 2.55  28 2.55  33 2.59  24 2.59  36 2.59  32 2.59  26 2.59
                            23 2.61
  35  0.667  0.667  0.481-  34 2.55  32 2.55  29 2.55  30 2.55  33 2.55  31 2.55  24 2.57  27 2.57
                            22 2.57
  36  0.333  0.333  0.482-  39 2.28  31 2.59  29 2.59  33 2.59  34 2.59  32 2.59  30 2.59  23 2.61
                            20 2.61  21 2.61
  37  0.272  0.249  0.586-  39 0.98
  38  0.477  0.248  0.586-  39 0.98
  39  0.336  0.327  0.576-  37 0.98  38 0.98  36 2.28
 
  LATTYP: Found a hexagonal cell.
 ALAT       =     7.6967864036
 C/A-ratio  =     3.1535378041
  
  Lattice vectors:
  
 A1 = (  -3.8483927580,  -6.6656128093,   0.0000000000)
 A2 = (   7.6967864037,   0.0000000000,   0.0000000000)
 A3 = (   0.0000000000,   0.0000000000,  24.2721068937)


Analysis of symmetry for initial positions (statically):
=====================================================================
 Subroutine PRICEL returns:
 Original cell was already a primitive cell.
 

 Routine SETGRP: Setting up the symmetry group for a 
 hexagonal supercell.


 Subroutine GETGRP returns: Found  1 space group operations
 (whereof  1 operations were pure point group operations)
 out of a pool of 24 trial point group operations.


The static configuration has the point symmetry C_1 .


Analysis of symmetry for dynamics (positions and initial velocities):
=====================================================================
 Subroutine PRICEL returns:
 Original cell was already a primitive cell.
 

 Routine SETGRP: Setting up the symmetry group for a 
 hexagonal supercell.


 Subroutine GETGRP returns: Found  1 space group operations
 (whereof  1 operations were pure point group operations)
 out of a pool of 24 trial point group operations.


The dynamic configuration has the point symmetry C_1 .


Analysis of constrained symmetry for selective dynamics:
=====================================================================
 Subroutine PRICEL returns:
 Original cell was already a primitive cell.
 

 Routine SETGRP: Setting up the symmetry group for a 
 hexagonal supercell.


 Subroutine GETGRP returns: Found  1 space group operations
 (whereof  1 operations were pure point group operations)
 out of a pool of 24 trial point group operations.


The constrained configuration has the point symmetry C_1 .


 Subroutine INISYM returns: Found  1 space group operations
 (whereof  1 operations are pure point group operations),
 and found     1 'primitive' translations


----------------------------------------------------------------------------------------

                                     Primitive cell                                     

  volume of cell :    1245.2513

  direct lattice vectors                    reciprocal lattice vectors
     7.696786404  0.000000000  0.000000000     0.129924354 -0.075011849  0.000000000
     3.848392758  6.665612809  0.000000000     0.000000000  0.150023716  0.000000000
     0.000000000  0.000000000 24.272106894     0.000000000  0.000000000  0.041199555

  length of vectors
     7.696786404  7.696786404 24.272106894     0.150023716  0.150023716  0.041199555

  position of ions in fractional coordinates (direct lattice)
     0.000000000  0.000000000  0.221305866
     0.333333343  0.000000000  0.221305866
     0.666666687  0.000000000  0.221305866
     1.000000000  0.333333343  0.221305866
     0.333333313  0.333333343  0.221305866
     0.666666687  0.333333343  0.221305866
     1.000000000  0.666666687  0.221305866
     0.333333373  0.666666687  0.221305866
     0.666666627  0.666666687  0.221305866
     0.111111119  0.111111112  0.307610705
     0.444444418  0.111111112  0.307610705
     0.777777791  0.111111112  0.307610705
     0.111111119  0.444444448  0.307610705
     0.444444478  0.444444448  0.307610705
     0.777777731  0.444444448  0.307610705
     0.111111112  0.777777731  0.307610705
     0.444444478  0.777777731  0.307610705
     0.777777851  0.777777731  0.307610705
     0.888920760  0.222158496  0.393532730
     0.221702589  0.221702574  0.393475248
     0.556594881  0.221702574  0.393475248
     0.888359181  0.555820380  0.394249456
     0.221702559  0.556594821  0.393475248
     0.555820440  0.555820380  0.394249456
     0.888920760  0.888920760  0.393532730
     0.222158511  0.888920760  0.393532730
     0.555820380  0.888359181  0.394249456
     0.000000000  0.000000000  0.480247550
     0.333322426  0.997018191  0.481651898
     0.669659413  0.997018191  0.481651898
     0.997018191  0.333322426  0.481651898
     0.669659413  0.333322426  0.481651898
     0.997018191  0.669659413  0.481651898
     0.333322456  0.669659413  0.481651898
     0.666666627  0.666666687  0.481068911
     0.333333313  0.333333343  0.481769031
     0.271885582  0.248752860  0.585869331
     0.477263640  0.247922917  0.586218968
     0.335545300  0.327220661  0.575647942

  ion indices of the primitive-cell ions
   primitive index   ion index
                 1           1
                 2           2
                 3           3
                 4           4
                 5           5
                 6           6
                 7           7
                 8           8
                 9           9
                10          10
                11          11
                12          12
                13          13
                14          14
                15          15
                16          16
                17          17
                18          18
                19          19
                20          20
                21          21
                22          22
                23          23
                24          24
                25          25
                26          26
                27          27
                28          28
                29          29
                30          30
                31          31
                32          32
                33          33
                34          34
                35          35
                36          36
                37          37
                38          38
                39          39

----------------------------------------------------------------------------------------

 
 
 KPOINTS: Automatic mesh                          

Automatic generation of k-mesh.
 Grid dimensions read from file:
 generate k-points for:    8    8    1

 Generating k-lattice:

  Cartesian coordinates                     Fractional coordinates (reciprocal lattice)
     0.016240544 -0.009376481  0.000000000     0.125000000 -0.000000000  0.000000000
     0.000000000  0.018752964  0.000000000     0.000000000  0.125000000  0.000000000
     0.000000000  0.000000000  0.041199555     0.000000000  0.000000000  1.000000000

  Length of vectors
     0.018752964  0.018752964  0.041199555

  Shift w.r.t. Gamma in fractional coordinates (k-lattice)
     0.000000000  0.000000000  0.000000000

 TETIRR: Found    192 inequivalent tetrahedra from      384
 
 Subroutine IBZKPT returns following result:
 ===========================================
 
 Found     34 irreducible k-points:
 
 Following reciprocal coordinates:
            Coordinates               Weight
  0.000000  0.000000  0.000000      1.000000
  0.125000 -0.000000  0.000000      2.000000
  0.125000  0.125000  0.000000      2.000000
  0.000000  0.125000  0.000000      2.000000
  0.250000 -0.000000  0.000000      2.000000
  0.250000  0.250000  0.000000      2.000000
  0.000000  0.250000  0.000000      2.000000
  0.375000 -0.000000  0.000000      2.000000
  0.375000  0.375000  0.000000      2.000000
  0.000000  0.375000  0.000000      2.000000
  0.500000 -0.000000  0.000000      1.000000
  0.500000  0.500000  0.000000      1.000000
  0.000000  0.500000  0.000000      1.000000
  0.250000  0.125000  0.000000      2.000000
  0.125000  0.250000  0.000000      2.000000
 -0.125000  0.125000  0.000000      2.000000
  0.375000  0.125000  0.000000      2.000000
  0.250000  0.375000  0.000000      2.000000
 -0.125000  0.250000  0.000000      2.000000
  0.250000 -0.125000  0.000000      2.000000
 -0.125000 -0.375000  0.000000      2.000000
 -0.375000 -0.250000  0.000000      2.000000
  0.500000  0.125000  0.000000      2.000000
  0.375000  0.500000  0.000000      2.000000
 -0.125000  0.375000  0.000000      2.000000
  0.375000 -0.125000  0.000000      2.000000
 -0.125000  0.500000  0.000000      2.000000
  0.500000 -0.375000  0.000000      2.000000
  0.500000  0.250000  0.000000      2.000000
  0.250000  0.500000  0.000000      2.000000
 -0.250000  0.250000  0.000000      2.000000
 -0.375000  0.250000  0.000000      2.000000
  0.375000 -0.375000  0.000000      2.000000
 -0.250000  0.375000  0.000000      2.000000
 
 Following cartesian coordinates:
            Coordinates               Weight
  0.000000  0.000000  0.000000      1.000000
  0.016241 -0.009376  0.000000      2.000000
  0.016241  0.009376  0.000000      2.000000
  0.000000  0.018753  0.000000      2.000000
  0.032481 -0.018753  0.000000      2.000000
  0.032481  0.018753  0.000000      2.000000
  0.000000  0.037506  0.000000      2.000000
  0.048722 -0.028129  0.000000      2.000000
  0.048722  0.028129  0.000000      2.000000
  0.000000  0.056259  0.000000      2.000000
  0.064962 -0.037506  0.000000      1.000000
  0.064962  0.037506  0.000000      1.000000
  0.000000  0.075012  0.000000      1.000000
  0.032481  0.000000  0.000000      2.000000
  0.016241  0.028129  0.000000      2.000000
 -0.016241  0.028129  0.000000      2.000000
  0.048722 -0.009376  0.000000      2.000000
  0.032481  0.037506  0.000000      2.000000
 -0.016241  0.046882  0.000000      2.000000
  0.032481 -0.037506  0.000000      2.000000
 -0.016241 -0.046882  0.000000      2.000000
 -0.048722 -0.009376  0.000000      2.000000
  0.064962 -0.018753  0.000000      2.000000
  0.048722  0.046882  0.000000      2.000000
 -0.016241  0.065635  0.000000      2.000000
  0.048722 -0.046882  0.000000      2.000000
 -0.016241  0.084388  0.000000      2.000000
  0.064962 -0.093765  0.000000      2.000000
  0.064962  0.000000  0.000000      2.000000
  0.032481  0.056259  0.000000      2.000000
 -0.032481  0.056259  0.000000      2.000000
 -0.048722  0.065635  0.000000      2.000000
  0.048722 -0.084388  0.000000      2.000000
 -0.032481  0.075012  0.000000      2.000000
 


--------------------------------------------------------------------------------------------------------




 Dimension of arrays:
   k-points           NKPTS =     34   k-points in BZ     NKDIM =     34   number of bands    NBANDS=    252
   number of dos      NEDOS =    301   number of ions     NIONS =     39
   non local maximal  LDIM  =      6   non local SUM 2l+1 LMDIM =     18
   total plane-waves  NPLWV = 246960
   max r-space proj   IRMAX =   3524   max aug-charges    IRDMAX=  13698
   dimension x,y,z NGX =    42 NGY =   42 NGZ =  140
   dimension x,y,z NGXF=    84 NGYF=   84 NGZF=  280
   support grid    NGXF=    84 NGYF=   84 NGZF=  280
   ions per type =              35   1   2   1
   NGX,Y,Z   is equivalent  to a cutoff of   9.07,  9.07,  9.59 a.u.
   NGXF,Y,Z  is equivalent  to a cutoff of  18.14, 18.14, 19.18 a.u.

 SYSTEM =  unknown system                          
 POSCAR =  Cu-Ta-H2O                               

 Startparameter for this run:
   NWRITE =      2    write-flag & timer
   PREC   = normal    normal or accurate (medium, high low for compatibility)
   ISTART =      0    job   : 0-new  1-cont  2-samecut
   ICHARG =     11    charge: 1-file 2-atom 10-const
   ISPIN  =      1    spin polarized calculation?
   LNONCOLLINEAR =      F non collinear calculations
   LSORBIT =      F    spin-orbit coupling
   INIWAV =      1    electr: 0-lowe 1-rand  2-diag
   LASPH  =      F    aspherical Exc in radial PAW
   METAGGA=      F    non-selfconsistent MetaGGA calc.

 Electronic Relaxation 1
   ENCUT  =  500.0 eV  36.75 Ry    6.06 a.u.  14.03 14.03 44.25*2*pi/ulx,y,z
   ENINI  =  500.0     initial cutoff
   ENAUG  =  605.4 eV  augmentation charge cutoff
   NELM   =    150;   NELMIN=  2; NELMDL= -5     # of ELM steps 
   EDIFF  = 0.1E-04   stopping-criterion for ELM
   LREAL  =      T    real-space projection
   NLSPLINE    = F    spline interpolate recip. space projectors
   LCOMPAT=      F    compatible to vasp.4.4
   GGA_COMPAT  = T    GGA compatible to vasp.4.4-vasp.4.6
   LMAXPAW     = -100 max onsite density
   LMAXMIX     =    2 max onsite mixed and CHGCAR
   VOSKOWN=      0    Vosko Wilk Nusair interpolation
   ROPT   =   -0.00050  -0.00050  -0.00050  -0.00050
 Ionic relaxation
   EDIFFG = -.1E-01   stopping-criterion for IOM
   NSW    =      0    number of steps for IOM
   NBLOCK =      1;   KBLOCK =      1    inner block; outer block 
   IBRION =     -1    ionic relax: 0-MD 1-quasi-New 2-CG
   NFREE  =      1    steps in history (QN), initial steepest desc. (CG)
   ISIF   =      2    stress and relaxation
   IWAVPR =     10    prediction:  0-non 1-charg 2-wave 3-comb
   ISYM   =      2    0-nonsym 1-usesym 2-fastsym
   LCORR  =      T    Harris-Foulkes like correction to forces

   POTIM  = 0.5000    time-step for ionic-motion
   TEIN   =    0.0    initial temperature
   TEBEG  =    0.0;   TEEND  =   0.0 temperature during run
   SMASS  =  -3.00    Nose mass-parameter (am)
   estimated Nose-frequenzy (Omega)   =  0.10E-29 period in steps = 0.13E+47 mass=  -0.135E-26a.u.
   SCALEE = 1.0000    scale energy and forces
   NPACO  =    256;   APACO  = 16.0  distance and # of slots for P.C.
   PSTRESS=    0.0 pullay stress

  Mass of Ions in am
   POMASS =  63.55180.95  1.00 16.00
  Ionic Valenz
   ZVAL   =  11.00  5.00  1.00  6.00
  Atomic Wigner-Seitz radii
   RWIGS  =  -1.00 -1.00 -1.00 -1.00
  virtual crystal weights 
   VCA    =   1.00  1.00  1.00  1.00
   NELECT =     398.0000    total number of electrons
   NUPDOWN=      -1.0000    fix difference up-down

 DOS related values:
   EMIN   =  10.00;   EMAX   =-10.00  energy-range for DOS
   EFERMI =   0.00
   ISMEAR =    -5;   SIGMA  =   0.10  broadening in eV -4-tet -1-fermi 0-gaus

 Electronic relaxation 2 (details)
   IALGO  =     68    algorithm
   LDIAG  =      T    sub-space diagonalisation (order eigenvalues)
   LSUBROT=      F    optimize rotation matrix (better conditioning)
   TURBO    =      0    0=normal 1=particle mesh
   IRESTART =      0    0=no restart 2=restart with 2 vectors
   NREBOOT  =      0    no. of reboots
   NMIN     =      0    reboot dimension
   EREF     =   0.00    reference energy to select bands
   IMIX   =      4    mixing-type and parameters
     AMIX     =   0.40;   BMIX     =  1.00
     AMIX_MAG =   1.60;   BMIX_MAG =  1.00
     AMIN     =   0.10
     WC   =   100.;   INIMIX=   1;  MIXPRE=   1;  MAXMIX= -45

 Intra band minimization:
   WEIMIN = 0.0000     energy-eigenvalue tresh-hold
   EBREAK =  0.99E-08  absolut break condition
   DEPER  =   0.30     relativ break condition  

   TIME   =   0.40     timestep for ELM

  volume/ion in A,a.u.               =      31.93       215.47
  Fermi-wavevector in a.u.,A,eV,Ry     =   1.119310  2.115188 17.046110  1.252854
  Thomas-Fermi vector in A             =   2.255948
 
 Write flags
   LWAVE        =      F    write WAVECAR
   LDOWNSAMPLE  =      F    k-point downsampling of WAVECAR
   LCHARG       =      F    write CHGCAR
   LVTOT        =      F    write LOCPOT, total local potential
   LVHAR        =      F    write LOCPOT, Hartree potential only
   LELF         =      F    write electronic localiz. function (ELF)
   LORBIT       =     10    0 simple, 1 ext, 2 COOP (PROOUT), +10 PAW based schemes


 Dipole corrections
   LMONO  =      F    monopole corrections only (constant potential shift)
   LDIPOL =      F    correct potential (dipole corrections)
   IDIPOL =      0    1-x, 2-y, 3-z, 4-all directions 
   EPSILON=  1.0000000 bulk dielectric constant

 Exchange correlation treatment:
   GGA     =    --    GGA type
   LEXCH   =     8    internal setting for exchange type
   VOSKOWN=      0    Vosko Wilk Nusair interpolation
   LHFCALC =     F    Hartree Fock is set to
   LHFONE  =     F    Hartree Fock one center treatment
   AEXX    =    0.0000 exact exchange contribution

 Linear response parameters
   LEPSILON=     F    determine dielectric tensor
   LRPA    =     F    only Hartree local field effects (RPA)
   LNABLA  =     F    use nabla operator in PAW spheres
   LVEL    =     F    velocity operator in full k-point grid
   LINTERFAST=   F  fast interpolation
   KINTER  =     0    interpolate to denser k-point grid
   CSHIFT  =0.1000    complex shift for real part using Kramers Kronig
   OMEGAMAX=  -1.0    maximum frequency
   DEG_THRESHOLD= 0.2000000E-02 threshold for treating states as degnerate
   RTIME   =   -0.100 relaxation time in fs
  (WPLASMAI=    0.000 imaginary part of plasma frequency in eV, 0.658/RTIME)
   DFIELD  = 0.0000000 0.0000000 0.0000000 field for delta impulse in time
 
 Orbital magnetization related:
   ORBITALMAG=     F  switch on orbital magnetization
   LCHIMAG   =     F  perturbation theory with respect to B field
   DQ        =  0.001000  dq finite difference perturbation B field
   LLRAUG    =     F  two centre corrections for induced B field



--------------------------------------------------------------------------------------------------------


 Static calculation
 charge density and potential remain constant during run
 non-spin polarized calculation
 RMM-DIIS sequential band-by-band and
  variant of blocked Davidson during initial phase
 perform sub-space diagonalisation
    before iterative eigenvector-optimisation
 no mixing
 using additional bands           53
 real space projection scheme for non local part
 use partial core corrections
 calculate Harris-corrections to forces 
   (improved forces if not selfconsistent)
 use gradient corrections 
 WARNING: stress and forces are not correct
  (second derivative of E(xc) not defined)
 use of overlap-Matrix (Vanderbilt PP)
 Fermi weights with tetrahedron method with Bloechl corrections


--------------------------------------------------------------------------------------------------------


  energy-cutoff  :      500.00
  volume of cell :     1245.25
      direct lattice vectors                 reciprocal lattice vectors
     7.696786404  0.000000000  0.000000000     0.129924354 -0.075011849  0.000000000
     3.848392758  6.665612809  0.000000000     0.000000000  0.150023716  0.000000000
     0.000000000  0.000000000 24.272106894     0.000000000  0.000000000  0.041199555

  length of vectors
     7.696786404  7.696786404 24.272106894     0.150023716  0.150023716  0.041199555


 
 k-points in units of 2pi/SCALE and weight: Automatic mesh                          
   0.00000000  0.00000000  0.00000000       0.016
   0.01624054 -0.00937648  0.00000000       0.031
   0.01624054  0.00937648  0.00000000       0.031
   0.00000000  0.01875296  0.00000000       0.031
   0.03248109 -0.01875296  0.00000000       0.031
   0.03248109  0.01875297  0.00000000       0.031
   0.00000000  0.03750593  0.00000000       0.031
   0.04872163 -0.02812944  0.00000000       0.031
   0.04872163  0.02812945  0.00000000       0.031
   0.00000000  0.05625889  0.00000000       0.031
   0.06496218 -0.03750592  0.00000000       0.016
   0.06496218  0.03750593  0.00000000       0.016
   0.00000000  0.07501186  0.00000000       0.016
   0.03248109  0.00000000  0.00000000       0.031
   0.01624054  0.02812945  0.00000000       0.031
  -0.01624054  0.02812945  0.00000000       0.031
   0.04872163 -0.00937648  0.00000000       0.031
   0.03248109  0.03750593  0.00000000       0.031
  -0.01624054  0.04688241  0.00000000       0.031
   0.03248109 -0.03750593  0.00000000       0.031
  -0.01624054 -0.04688241  0.00000000       0.031
  -0.04872163 -0.00937649  0.00000000       0.031
   0.06496218 -0.01875296  0.00000000       0.031
   0.04872163  0.04688241  0.00000000       0.031
  -0.01624054  0.06563537  0.00000000       0.031
   0.04872163 -0.04688241  0.00000000       0.031
  -0.01624054  0.08438834  0.00000000       0.031
   0.06496218 -0.09376482  0.00000000       0.031
   0.06496218  0.00000000  0.00000000       0.031
   0.03248109  0.05625890  0.00000000       0.031
  -0.03248109  0.05625889  0.00000000       0.031
  -0.04872163  0.06563537  0.00000000       0.031
   0.04872163 -0.08438834  0.00000000       0.031
  -0.03248109  0.07501186  0.00000000       0.031
 
 k-points in reciprocal lattice and weights: Automatic mesh                          
   0.00000000  0.00000000  0.00000000       0.016
   0.12500000 -0.00000000  0.00000000       0.031
   0.12500000  0.12500000  0.00000000       0.031
   0.00000000  0.12500000  0.00000000       0.031
   0.25000000 -0.00000000  0.00000000       0.031
   0.25000000  0.25000000  0.00000000       0.031
   0.00000000  0.25000000  0.00000000       0.031
   0.37500000 -0.00000000  0.00000000       0.031
   0.37500000  0.37500000  0.00000000       0.031
   0.00000000  0.37500000  0.00000000       0.031
   0.50000000 -0.00000000  0.00000000       0.016
   0.50000000  0.50000000  0.00000000       0.016
   0.00000000  0.50000000  0.00000000       0.016
   0.25000000  0.12500000  0.00000000       0.031
   0.12500000  0.25000000  0.00000000       0.031
  -0.12500000  0.12500000  0.00000000       0.031
   0.37500000  0.12500000  0.00000000       0.031
   0.25000000  0.37500000  0.00000000       0.031
  -0.12500000  0.25000000  0.00000000       0.031
   0.25000000 -0.12500000  0.00000000       0.031
  -0.12500000 -0.37500000  0.00000000       0.031
  -0.37500000 -0.25000000  0.00000000       0.031
   0.50000000  0.12500000  0.00000000       0.031
   0.37500000  0.50000000  0.00000000       0.031
  -0.12500000  0.37500000  0.00000000       0.031
   0.37500000 -0.12500000  0.00000000       0.031
  -0.12500000  0.50000000  0.00000000       0.031
   0.50000000 -0.37500000  0.00000000       0.031
   0.50000000  0.25000000  0.00000000       0.031
   0.25000000  0.50000000  0.00000000       0.031
  -0.25000000  0.25000000  0.00000000       0.031
  -0.37500000  0.25000000  0.00000000       0.031
   0.37500000 -0.37500000  0.00000000       0.031
  -0.25000000  0.37500000  0.00000000       0.031
 
 position of ions in fractional coordinates (direct lattice) 
   0.00000000  0.00000000  0.22130587
   0.33333334  0.00000000  0.22130587
   0.66666669  0.00000000  0.22130587
   0.00000000  0.33333334  0.22130587
   0.33333331  0.33333334  0.22130587
   0.66666669  0.33333334  0.22130587
   0.00000000  0.66666669  0.22130587
   0.33333337  0.66666669  0.22130587
   0.66666663  0.66666669  0.22130587
   0.11111112  0.11111111  0.30761070
   0.44444442  0.11111111  0.30761070
   0.77777779  0.11111111  0.30761070
   0.11111112  0.44444445  0.30761070
   0.44444448  0.44444445  0.30761070
   0.77777773  0.44444445  0.30761070
   0.11111111  0.77777773  0.30761070
   0.44444448  0.77777773  0.30761070
   0.77777785  0.77777773  0.30761070
   0.88892076  0.22215850  0.39353273
   0.22170259  0.22170257  0.39347525
   0.55659488  0.22170257  0.39347525
   0.88835918  0.55582038  0.39424946
   0.22170256  0.55659482  0.39347525
   0.55582044  0.55582038  0.39424946
   0.88892076  0.88892076  0.39353273
   0.22215851  0.88892076  0.39353273
   0.55582038  0.88835918  0.39424946
   0.00000000  0.00000000  0.48024755
   0.33332243  0.99701819  0.48165190
   0.66965941  0.99701819  0.48165190
   0.99701819  0.33332243  0.48165190
   0.66965941  0.33332243  0.48165190
   0.99701819  0.66965941  0.48165190
   0.33332246  0.66965941  0.48165190
   0.66666663  0.66666669  0.48106891
   0.33333331  0.33333334  0.48176903
   0.27188558  0.24875286  0.58586933
   0.47726364  0.24792292  0.58621897
   0.33554530  0.32722066  0.57564794
 
 position of ions in cartesian coordinates  (Angst):
   0.00000000  0.00000000  5.37155964
   2.56559554  0.00000000  5.37155964
   5.13119109  0.00000000  5.37155964
   1.28279762  2.22187100  5.37155964
   3.84839293  2.22187100  5.37155964
   6.41398872  2.22187100  5.37155964
   2.56559525  4.44374201  5.37155964
   5.13119102  4.44374201  5.37155964
   7.69678588  4.44374201  5.37155964
   1.28279775  0.74062365  7.46635991
   3.84839295  0.74062365  7.46635991
   6.41398873  0.74062365  7.46635991
   2.56559535  2.96249461  7.46635991
   5.13119101  2.96249461  7.46635991
   7.69678586  2.96249461  7.46635991
   3.84839268  5.18436521  7.46635991
   6.41398840  5.18436521  7.46635991
   8.97958418  5.18436521  7.46635991
   7.69678637  1.48082252  9.55186849
   2.55959606  1.47778352  9.55047329
   5.13719050  1.47778352  9.55047329
   8.97652599  3.70488344  9.56926494
   3.84839272  3.71004557  9.55047329
   6.41704633  3.70488344  9.56926494
  10.26274943  5.92520160  9.55186849
   5.13082282  5.92520160  9.55186849
   7.69678578  5.92145833  9.56926494
   0.00000000  0.00000000 11.65661987
   6.40242910  6.64573723 11.69070636
   8.99114305  6.64573723 11.69070636
   8.95659167  2.22179823 11.69070636
   6.43698107  2.22179823 11.69070636
  10.25094849  4.46369036 11.69070636
   5.14262418  4.46369036 11.69070636
   7.69678588  4.44374201 11.67655602
   3.84839293  2.22187100 11.69354943
   3.04994395  1.65809025 14.22028302
   4.62750105  1.65255817 14.22876944
   3.84189412  2.18112623 13.97218838
 


--------------------------------------------------------------------------------------------------------


 k-point   1 :   0.0000 0.0000 0.0000  plane waves:   31487
 k-point   2 :   0.1250-0.0000 0.0000  plane waves:   31553
 k-point   3 :   0.1250 0.1250 0.0000  plane waves:   31553
 k-point   4 :   0.0000 0.1250 0.0000  plane waves:   31553
 k-point   5 :   0.2500-0.0000 0.0000  plane waves:   31574
 k-point   6 :   0.2500 0.2500 0.0000  plane waves:   31574
 k-point   7 :   0.0000 0.2500 0.0000  plane waves:   31574
 k-point   8 :   0.3750-0.0000 0.0000  plane waves:   31600
 k-point   9 :   0.3750 0.3750 0.0000  plane waves:   31600
 k-point  10 :   0.0000 0.3750 0.0000  plane waves:   31600
 k-point  11 :   0.5000-0.0000 0.0000  plane waves:   31646
 k-point  12 :   0.5000 0.5000 0.0000  plane waves:   31646
 k-point  13 :   0.0000 0.5000 0.0000  plane waves:   31646
 k-point  14 :   0.2500 0.1250 0.0000  plane waves:   31618
 k-point  15 :   0.1250 0.2500 0.0000  plane waves:   31618
 k-point  16 :  -0.1250 0.1250 0.0000  plane waves:   31618
 k-point  17 :   0.3750 0.1250 0.0000  plane waves:   31612
 k-point  18 :   0.2500 0.3750 0.0000  plane waves:   31612
 k-point  19 :  -0.1250 0.2500 0.0000  plane waves:   31612
 k-point  20 :   0.2500-0.1250 0.0000  plane waves:   31612
 k-point  21 :  -0.1250-0.3750 0.0000  plane waves:   31612
 k-point  22 :  -0.3750-0.2500 0.0000  plane waves:   31612
 k-point  23 :   0.5000 0.1250 0.0000  plane waves:   31639
 k-point  24 :   0.3750 0.5000 0.0000  plane waves:   31639
 k-point  25 :  -0.1250 0.3750 0.0000  plane waves:   31639
 k-point  26 :   0.3750-0.1250 0.0000  plane waves:   31639
 k-point  27 :  -0.1250 0.5000 0.0000  plane waves:   31639
 k-point  28 :   0.5000-0.3750 0.0000  plane waves:   31639
 k-point  29 :   0.5000 0.2500 0.0000  plane waves:   31648
 k-point  30 :   0.2500 0.5000 0.0000  plane waves:   31648
 k-point  31 :  -0.2500 0.2500 0.0000  plane waves:   31648
 k-point  32 :  -0.3750 0.2500 0.0000  plane waves:   31656
 k-point  33 :   0.3750-0.3750 0.0000  plane waves:   31656
 k-point  34 :  -0.2500 0.3750 0.0000  plane waves:   31656

 maximum and minimum number of plane-waves per node :     31656    31487

 maximum number of plane-waves:     31656
 maximum index in each direction: 
   IXMAX=   14   IYMAX=   14   IZMAX=   44
   IXMIN=  -14   IYMIN=  -14   IZMIN=  -44


 serial   3D FFT for wavefunctions
 parallel 3D FFT for charge:
    minimum data exchange during FFTs selected (reduces bandwidth)


 total amount of memory used by VASP MPI-rank0   226079. kBytes
=======================================================================

   base      :      30000. kBytes
   nonlr-proj:      18728. kBytes
   fftplans  :       3394. kBytes
   grid      :      15015. kBytes
   one-center:        606. kBytes
   wavefun   :     158336. kBytes
 
     INWAV:  cpu time    0.0000: real time    0.0001
 initial charge density was supplied:
 number of electron     397.9999467 magnetization 
 keeping initial charge density in first step


--------------------------------------------------------------------------------------------------------


 Maximum index for non-local projection operator         3366
 Maximum index for augmentation-charges          619 (set IRDMAX)


--------------------------------------------------------------------------------------------------------


 First call to EWALD:  gamma=   0.165
 Maximum number of real-space cells 4x 4x 1
 Maximum number of reciprocal cells 2x 2x 6

    FEWALD:  cpu time    0.0014: real time    0.0014


--------------------------------------- Iteration      1(   1)  ---------------------------------------


    POTLOK:  cpu time    0.0320: real time    0.0323
    SETDIJ:  cpu time    0.0043: real time    0.0044
     EDDAV:  cpu time   22.0280: real time   22.0306
 BZINTS: Fermi energy:   12.740501;  398.000000 electrons
         Band energy: 0.241477E+04;  BLOECHL correction:   -0.040091
       DOS:  cpu time    0.0591: real time    0.0592
    --------------------------------------------
      LOOP:  cpu time   22.1234: real time   22.1265

 eigenvalue-minimisations  : 17136
 total energy-change (2. order) : 0.3501716E+04  (-0.1688119E+05)
 number of electron     397.9999467 magnetization 
 augmentation part      397.9999467 magnetization 

 Free energy of the ion-electron system (eV)
  ---------------------------------------------------
  alpha Z        PSCENC =       788.13550108
  Ewald energy   TEWEN  =    202397.87649928
  -Hartree energ DENC   =   -249198.80028688
  -exchange      EXHF   =         0.00000000
  -V(xc)+E(xc)   XCENC  =      1525.55829527
  PAW double counting   =     46680.84735560   -50378.82805043
  entropy T*S    EENTRO =         0.00000000
  eigenvalues    EBANDS =      2414.76880508
  atomic energy  EATOM  =     49272.15774179
  Solvation  Ediel_sol  =         0.00000000
  ---------------------------------------------------
  free energy    TOTEN  =      3501.71586079 eV

  energy without entropy =     3501.71586079  energy(sigma->0) =     3501.71586079


--------------------------------------------------------------------------------------------------------




--------------------------------------- Iteration      1(   2)  ---------------------------------------


     EDDAV:  cpu time   22.0108: real time   22.0118
 BZINTS: Fermi energy:    2.716955;  398.000000 electrons
         Band energy:-0.777043E+03;  BLOECHL correction:   -0.016915
       DOS:  cpu time    0.0598: real time    0.0598
    --------------------------------------------
      LOOP:  cpu time   22.0706: real time   22.0716

 eigenvalue-minimisations  : 17136
 total energy-change (2. order) :-0.3191812E+04  (-0.3060844E+04)
 number of electron     397.9999467 magnetization 
 augmentation part      397.9999467 magnetization 

 Free energy of the ion-electron system (eV)
  ---------------------------------------------------
  alpha Z        PSCENC =       788.13550108
  Ewald energy   TEWEN  =    202397.87649928
  -Hartree energ DENC   =   -249198.80028688
  -exchange      EXHF   =         0.00000000
  -V(xc)+E(xc)   XCENC  =      1525.55829527
  PAW double counting   =     46680.84735560   -50378.82805043
  entropy T*S    EENTRO =         0.00000000
  eigenvalues    EBANDS =      -777.04327607
  atomic energy  EATOM  =     49272.15774179
  Solvation  Ediel_sol  =         0.00000000
  ---------------------------------------------------
  free energy    TOTEN  =       309.90377965 eV

  energy without entropy =      309.90377965  energy(sigma->0) =      309.90377965


--------------------------------------------------------------------------------------------------------




--------------------------------------- Iteration      1(   3)  ---------------------------------------


     EDDAV:  cpu time   24.9721: real time   24.9732
 BZINTS: Fermi energy:    0.233740;  398.000000 electrons
         Band energy:-0.120402E+04;  BLOECHL correction:   -0.049147
       DOS:  cpu time    0.0601: real time    0.0601
    --------------------------------------------
      LOOP:  cpu time   25.0322: real time   25.0333

 eigenvalue-minimisations  : 19992
 total energy-change (2. order) :-0.4269727E+03  (-0.4036248E+03)
 number of electron     397.9999467 magnetization 
 augmentation part      397.9999467 magnetization 

 Free energy of the ion-electron system (eV)
  ---------------------------------------------------
  alpha Z        PSCENC =       788.13550108
  Ewald energy   TEWEN  =    202397.87649928
  -Hartree energ DENC   =   -249198.80028688
  -exchange      EXHF   =         0.00000000
  -V(xc)+E(xc)   XCENC  =      1525.55829527
  PAW double counting   =     46680.84735560   -50378.82805043
  entropy T*S    EENTRO =         0.00000000
  eigenvalues    EBANDS =     -1204.01596475
  atomic energy  EATOM  =     49272.15774179
  Solvation  Ediel_sol  =         0.00000000
  ---------------------------------------------------
  free energy    TOTEN  =      -117.06890904 eV

  energy without entropy =     -117.06890904  energy(sigma->0) =     -117.06890904


--------------------------------------------------------------------------------------------------------




--------------------------------------- Iteration      1(   4)  ---------------------------------------


     EDDAV:  cpu time   29.7060: real time   29.7072
 BZINTS: Fermi energy:   -0.005264;  398.000000 electrons
         Band energy:-0.123377E+04;  BLOECHL correction:   -0.024773
       DOS:  cpu time    0.0610: real time    0.0610
    --------------------------------------------
      LOOP:  cpu time   29.7669: real time   29.7681

 eigenvalue-minimisations  : 24668
 total energy-change (2. order) :-0.2975724E+02  (-0.2894583E+02)
 number of electron     397.9999467 magnetization 
 augmentation part      397.9999467 magnetization 

 Free energy of the ion-electron system (eV)
  ---------------------------------------------------
  alpha Z        PSCENC =       788.13550108
  Ewald energy   TEWEN  =    202397.87649928
  -Hartree energ DENC   =   -249198.80028688
  -exchange      EXHF   =         0.00000000
  -V(xc)+E(xc)   XCENC  =      1525.55829527
  PAW double counting   =     46680.84735560   -50378.82805043
  entropy T*S    EENTRO =         0.00000000
  eigenvalues    EBANDS =     -1233.77320095
  atomic energy  EATOM  =     49272.15774179
  Solvation  Ediel_sol  =         0.00000000
  ---------------------------------------------------
  free energy    TOTEN  =      -146.82614524 eV

  energy without entropy =     -146.82614524  energy(sigma->0) =     -146.82614524


--------------------------------------------------------------------------------------------------------




--------------------------------------- Iteration      1(   5)  ---------------------------------------


     EDDAV:  cpu time   25.8420: real time   25.8464
 BZINTS: Fermi energy:   -0.017935;  398.000000 electrons
         Band energy:-0.123444E+04;  BLOECHL correction:   -0.024190
       DOS:  cpu time    0.0600: real time    0.0600
    --------------------------------------------
      LOOP:  cpu time   25.9021: real time   25.9064

 eigenvalue-minimisations  : 20888
 total energy-change (2. order) :-0.6631169E+00  (-0.6613245E+00)
 number of electron     397.9999467 magnetization 
 augmentation part      397.9999467 magnetization 

 Free energy of the ion-electron system (eV)
  ---------------------------------------------------
  alpha Z        PSCENC =       788.13550108
  Ewald energy   TEWEN  =    202397.87649928
  -Hartree energ DENC   =   -249198.80028688
  -exchange      EXHF   =         0.00000000
  -V(xc)+E(xc)   XCENC  =      1525.55829527
  PAW double counting   =     46680.84735560   -50378.82805043
  entropy T*S    EENTRO =         0.00000000
  eigenvalues    EBANDS =     -1234.43631783
  atomic energy  EATOM  =     49272.15774179
  Solvation  Ediel_sol  =         0.00000000
  ---------------------------------------------------
  free energy    TOTEN  =      -147.48926211 eV

  energy without entropy =     -147.48926211  energy(sigma->0) =     -147.48926211


--------------------------------------------------------------------------------------------------------




--------------------------------------- Iteration      1(   6)  ---------------------------------------


    EDDIAG:  cpu time    4.1679: real time    4.1686
  RMM-DIIS:  cpu time   12.5216: real time   12.5221
    ORTHCH:  cpu time    0.7757: real time    0.7757
 BZINTS: Fermi energy:   -0.018001;  398.000000 electrons
         Band energy:-0.123445E+04;  BLOECHL correction:   -0.024188
       DOS:  cpu time    0.0615: real time    0.0615
    --------------------------------------------
      LOOP:  cpu time   17.5268: real time   17.5279

 eigenvalue-minimisations  : 18770
 total energy-change (2. order) :-0.1431424E-01  (-0.1431711E-01)
 number of electron     397.9999467 magnetization 
 augmentation part      397.9999467 magnetization 

 Free energy of the ion-electron system (eV)
  ---------------------------------------------------
  alpha Z        PSCENC =       788.13550108
  Ewald energy   TEWEN  =    202397.87649928
  -Hartree energ DENC   =   -249198.80028688
  -exchange      EXHF   =         0.00000000
  -V(xc)+E(xc)   XCENC  =      1525.55829527
  PAW double counting   =     46680.84735560   -50378.82805043
  entropy T*S    EENTRO =         0.00000000
  eigenvalues    EBANDS =     -1234.45063207
  atomic energy  EATOM  =     49272.15774179
  Solvation  Ediel_sol  =         0.00000000
  ---------------------------------------------------
  free energy    TOTEN  =      -147.50357635 eV

  energy without entropy =     -147.50357635  energy(sigma->0) =     -147.50357635


--------------------------------------------------------------------------------------------------------




--------------------------------------- Iteration      1(   7)  ---------------------------------------


    EDDIAG:  cpu time    4.1605: real time    4.1608
  RMM-DIIS:  cpu time   17.4818: real time   17.4825
    ORTHCH:  cpu time    0.7769: real time    0.7769
 BZINTS: Fermi energy:   -0.018028;  398.000000 electrons
         Band energy:-0.123446E+04;  BLOECHL correction:   -0.024187
       DOS:  cpu time    0.0614: real time    0.0614
    --------------------------------------------
      LOOP:  cpu time   22.4807: real time   22.4817

 eigenvalue-minimisations  : 26158
 total energy-change (2. order) :-0.6538002E-02  (-0.6457142E-02)
 number of electron     397.9999467 magnetization 
 augmentation part      397.9999467 magnetization 

 Free energy of the ion-electron system (eV)
  ---------------------------------------------------
  alpha Z        PSCENC =       788.13550108
  Ewald energy   TEWEN  =    202397.87649928
  -Hartree energ DENC   =   -249198.80028688
  -exchange      EXHF   =         0.00000000
  -V(xc)+E(xc)   XCENC  =      1525.55829527
  PAW double counting   =     46680.84735560   -50378.82805043
  entropy T*S    EENTRO =         0.00000000
  eigenvalues    EBANDS =     -1234.45717007
  atomic energy  EATOM  =     49272.15774179
  Solvation  Ediel_sol  =         0.00000000
  ---------------------------------------------------
  free energy    TOTEN  =      -147.51011435 eV

  energy without entropy =     -147.51011435  energy(sigma->0) =     -147.51011435


--------------------------------------------------------------------------------------------------------




--------------------------------------- Iteration      1(   8)  ---------------------------------------


    EDDIAG:  cpu time    4.1627: real time    4.1631
  RMM-DIIS:  cpu time   16.9127: real time   16.9134
    ORTHCH:  cpu time    0.7752: real time    0.7752
 BZINTS: Fermi energy:   -0.018029;  398.000000 electrons
         Band energy:-0.123446E+04;  BLOECHL correction:   -0.024187
       DOS:  cpu time    0.0549: real time    0.0549
    --------------------------------------------
      LOOP:  cpu time   21.9055: real time   21.9066

 eigenvalue-minimisations  : 25233
 total energy-change (2. order) :-0.5747580E-03  (-0.5627151E-03)
 number of electron     397.9999467 magnetization 
 augmentation part      397.9999467 magnetization 

 Free energy of the ion-electron system (eV)
  ---------------------------------------------------
  alpha Z        PSCENC =       788.13550108
  Ewald energy   TEWEN  =    202397.87649928
  -Hartree energ DENC   =   -249198.80028688
  -exchange      EXHF   =         0.00000000
  -V(xc)+E(xc)   XCENC  =      1525.55829527
  PAW double counting   =     46680.84735560   -50378.82805043
  entropy T*S    EENTRO =         0.00000000
  eigenvalues    EBANDS =     -1234.45774483
  atomic energy  EATOM  =     49272.15774179
  Solvation  Ediel_sol  =         0.00000000
  ---------------------------------------------------
  free energy    TOTEN  =      -147.51068911 eV

  energy without entropy =     -147.51068911  energy(sigma->0) =     -147.51068911


--------------------------------------------------------------------------------------------------------




--------------------------------------- Iteration      1(   9)  ---------------------------------------


    EDDIAG:  cpu time    4.1609: real time    4.1611
  RMM-DIIS:  cpu time   17.4163: real time   17.4170
    ORTHCH:  cpu time    0.7746: real time    0.7747
 BZINTS: Fermi energy:   -0.018029;  398.000000 electrons
         Band energy:-0.123446E+04;  BLOECHL correction:   -0.024187
       DOS:  cpu time    0.0601: real time    0.0601
    --------------------------------------------
      LOOP:  cpu time   22.4119: real time   22.4129

 eigenvalue-minimisations  : 25989
 total energy-change (2. order) :-0.1066828E-03  (-0.1020979E-03)
 number of electron     397.9999467 magnetization 
 augmentation part      397.9999467 magnetization 

 Free energy of the ion-electron system (eV)
  ---------------------------------------------------
  alpha Z        PSCENC =       788.13550108
  Ewald energy   TEWEN  =    202397.87649928
  -Hartree energ DENC   =   -249198.80028688
  -exchange      EXHF   =         0.00000000
  -V(xc)+E(xc)   XCENC  =      1525.55829527
  PAW double counting   =     46680.84735560   -50378.82805043
  entropy T*S    EENTRO =         0.00000000
  eigenvalues    EBANDS =     -1234.45785151
  atomic energy  EATOM  =     49272.15774179
  Solvation  Ediel_sol  =         0.00000000
  ---------------------------------------------------
  free energy    TOTEN  =      -147.51079580 eV

  energy without entropy =     -147.51079580  energy(sigma->0) =     -147.51079580


--------------------------------------------------------------------------------------------------------




--------------------------------------- Iteration      1(  10)  ---------------------------------------


    EDDIAG:  cpu time    4.1658: real time    4.1662
  RMM-DIIS:  cpu time   13.5977: real time   13.5982
    ORTHCH:  cpu time    0.7750: real time    0.7751
 BZINTS: Fermi energy:   -0.018029;  398.000000 electrons
         Band energy:-0.123446E+04;  BLOECHL correction:   -0.024187
       DOS:  cpu time    0.0615: real time    0.0615
    --------------------------------------------
      LOOP:  cpu time   18.6000: real time   18.6010

 eigenvalue-minimisations  : 19658
 total energy-change (2. order) :-0.1578333E-04  (-0.1511916E-04)
 number of electron     397.9999467 magnetization 
 augmentation part      397.9999467 magnetization 

 Free energy of the ion-electron system (eV)
  ---------------------------------------------------
  alpha Z        PSCENC =       788.13550108
  Ewald energy   TEWEN  =    202397.87649928
  -Hartree energ DENC   =   -249198.80028688
  -exchange      EXHF   =         0.00000000
  -V(xc)+E(xc)   XCENC  =      1525.55829527
  PAW double counting   =     46680.84735560   -50378.82805043
  entropy T*S    EENTRO =         0.00000000
  eigenvalues    EBANDS =     -1234.45786730
  atomic energy  EATOM  =     49272.15774179
  Solvation  Ediel_sol  =         0.00000000
  ---------------------------------------------------
  free energy    TOTEN  =      -147.51081158 eV

  energy without entropy =     -147.51081158  energy(sigma->0) =     -147.51081158


--------------------------------------------------------------------------------------------------------




--------------------------------------- Iteration      1(  11)  ---------------------------------------


    EDDIAG:  cpu time    4.1616: real time    4.1620
  RMM-DIIS:  cpu time   10.4290: real time   10.4294
    ORTHCH:  cpu time    0.7747: real time    0.7748
 BZINTS: Fermi energy:   -0.018029;  398.000000 electrons
         Band energy:-0.123446E+04;  BLOECHL correction:   -0.024187
       DOS:  cpu time    0.0614: real time    0.0614
    --------------------------------------------
      LOOP:  cpu time   15.4267: real time   15.4276

 eigenvalue-minimisations  : 13664
 total energy-change (2. order) :-0.2742832E-05  (-0.2768486E-05)
 number of electron     397.9999467 magnetization 
 augmentation part      397.9999467 magnetization 

 Free energy of the ion-electron system (eV)
  ---------------------------------------------------
  alpha Z        PSCENC =       788.13550108
  Ewald energy   TEWEN  =    202397.87649928
  -Hartree energ DENC   =   -249198.80028688
  -exchange      EXHF   =         0.00000000
  -V(xc)+E(xc)   XCENC  =      1525.55829527
  PAW double counting   =     46680.84735560   -50378.82805043
  entropy T*S    EENTRO =         0.00000000
  eigenvalues    EBANDS =     -1234.45787004
  atomic energy  EATOM  =     49272.15774179
  Solvation  Ediel_sol  =         0.00000000
  ---------------------------------------------------
  free energy    TOTEN  =      -147.51081432 eV

  energy without entropy =     -147.51081432  energy(sigma->0) =     -147.51081432


--------------------------------------------------------------------------------------------------------




 average (electrostatic) potential at core
  the test charge radii are     0.9430  1.2538  0.5201  0.7215
  (the norm of the test charge is              1.0000)
       1 -71.0082       2 -71.0086       3 -71.0086       4 -71.0076       5 -71.0152
       6 -71.0073       7 -71.0098       8 -71.0096       9 -71.0037      10 -71.3000
      11 -71.2593      12 -71.2997      13 -71.2607      14 -71.2607      15 -71.2674
      16 -71.3015      17 -71.2703      18 -71.2702      19 -71.2894      20 -71.5475
      21 -71.5475      22 -71.2460      23 -71.5486      24 -71.2463      25 -71.2871
      26 -71.2874      27 -71.2470      28 -71.1090      29 -71.3365      30 -71.3361
      31 -71.3254      32 -71.3249      33 -71.3159      34 -71.3161      35 -71.0795
      36 -42.4119      37 -42.1906      38 -42.1928      39 -78.7799
 
 
 
 E-fermi :  -0.0180     XC(G=0):  -5.3441     alpha+bet : -4.7573

 Fermi energy:        -0.0180290522

 k-point     1 :       0.0000    0.0000    0.0000
  band No.  band energies     occupation 
      1     -23.3255      2.00000
      2     -11.0815      2.00000
      3      -8.8879      2.00000
      4      -7.9630      2.00000
      5      -7.5778      2.00000
      6      -6.1349      2.00000
      7      -6.0094      2.00000
      8      -5.9058      2.00000
      9      -5.9047      2.00000
     10      -5.8557      2.00000
     11      -5.8549      2.00000
     12      -5.8454      2.00000
     13      -5.7397      2.00000
     14      -5.1849      2.00000
     15      -5.1847      2.00000
     16      -5.1664      2.00000
     17      -5.1162      2.00000
[...]
  0.000   0.000   0.000   0.000   0.000   0.000   0.000   0.000   0.000   0.000   1.000   0.000   0.000   0.000   0.000   0.000
  0.000   0.000   0.000   0.000   0.000   0.000   0.000   0.000   0.000   0.000   0.000   0.000   0.000   0.000   0.000   0.000
  0.000   0.000   0.000   0.000   0.000   0.000   0.000   0.000   0.000   0.000   0.000   0.000   0.000   0.000   0.000   0.000
  0.000   0.000   0.000   0.000   0.000   0.000   0.000   0.000   0.000   0.000   0.000   0.000   0.000   0.000   0.000   0.000
  0.000   0.000   0.000   0.000   0.000   0.000   0.000   0.000   0.000   0.000   0.000   0.000   0.000   0.000   0.000   0.000
  0.000   0.000   0.000   0.000   0.000   0.000   0.000   0.000   0.000   0.000   0.000   0.000   0.000   0.000   0.000   0.000
  0.000   0.000   0.000   0.000   0.000   0.000   0.000   0.000   0.000   0.000   0.000   0.000   0.000   0.000   0.000   0.000
  0.000   0.000   0.000   0.000   0.000   0.000   0.000   0.000   0.000   0.000   0.000   0.000   0.000   0.000   0.000   0.000


------------------------ aborting loop because EDIFF is reached ----------------------------------------





 total charge

# of ion       s       p       d       tot
------------------------------------------
    1        0.450   0.282   9.188   9.920
    2        0.447   0.287   9.184   9.917
    3        0.447   0.287   9.184   9.917
    4        0.446   0.286   9.185   9.918
    5        0.449   0.287   9.179   9.915
    6        0.446   0.286   9.185   9.917
    7        0.446   0.287   9.184   9.917
    8        0.446   0.287   9.184   9.917
    9        0.448   0.284   9.187   9.919
   10        0.444   0.371   9.174   9.989
   11        0.442   0.365   9.182   9.989
   12        0.444   0.371   9.174   9.989
   13        0.441   0.365   9.182   9.989
   14        0.441   0.365   9.182   9.989
   15        0.438   0.370   9.174   9.982
   16        0.443   0.371   9.174   9.989
   17        0.438   0.370   9.175   9.982
   18        0.438   0.370   9.175   9.982
   19        0.442   0.369   9.177   9.988
   20        0.471   0.402   9.151  10.024
   21        0.471   0.402   9.151  10.023
   22        0.430   0.372   9.178   9.980
   23        0.471   0.401   9.152  10.024
   24        0.430   0.372   9.178   9.980
   25        0.442   0.368   9.178   9.988
   26        0.442   0.368   9.178   9.988
   27        0.430   0.372   9.178   9.980
   28        0.444   0.299   9.176   9.919
   29        0.483   0.328   9.154   9.965
   30        0.483   0.328   9.154   9.965
   31        0.484   0.327   9.154   9.964
   32        0.483   0.327   9.153   9.964
   33        0.482   0.322   9.157   9.961
   34        0.482   0.322   9.157   9.961
   35        0.438   0.302   9.176   9.917
   36        0.726   0.659   3.130   4.515
   37        0.598   0.117   0.000   0.715
   38        0.598   0.117   0.000   0.715
   39        1.565   3.625   0.000   5.190
--------------------------------------------------
tot         19.290  16.389 324.183 359.861
 
    CHARGE:  cpu time    0.8188: real time    0.8189
    FORLOC:  cpu time    0.0095: real time    0.0095
    FORNL :  cpu time    4.4691: real time    4.4694
    STRESS:  cpu time   13.3732: real time   13.3740
    FORCOR:  cpu time    0.0328: real time    0.0328
    FORHAR:  cpu time    0.0145: real time    0.0145
    OFIELD:  cpu time    0.0002: real time    0.0002

  FORCE on cell =-STRESS in cart. coord.  units (eV):
  Direction    XX          YY          ZZ          XY          YZ          ZX
  --------------------------------------------------------------------------------------
  Alpha Z   788.13550   788.13550   788.13550
  Ewald  228083.39875228013.69878************    -0.16696   -11.89472     1.07000
  Hartree240798.02150240785.74762************    -0.07260     8.58838     0.76518
  E(xc)   -2304.55697 -2304.73704 -2308.38244    -0.00010    -0.05411     0.00152
  Local  ************************481714.40598     0.23510    -4.64149    -1.72727
  n-local  -787.19295  -787.54914  -797.86871     0.01010    -0.21689    -0.00124
  augment  3316.32742  3317.56266  3341.47980    -0.01747     0.47624    -0.00807
  Kinetic  3316.96911  3335.95567  3369.79113     0.03118     7.57139    -0.09053
  Fock        0.00000     0.00000     0.00000     0.00000     0.00000     0.00000
  -------------------------------------------------------------------------------------
  Total     -10.70034   -10.66570    -4.70558     0.01926    -0.17120     0.00960
  in kB     -13.76738   -13.72280    -6.05434     0.02478    -0.22027     0.01235
  external pressure =      -11.18 kB  Pullay stress =        0.00 kB


 VOLUME and BASIS-vectors are now :
 -----------------------------------------------------------------------------
  energy-cutoff  :      500.00
  volume of cell :     1245.25
      direct lattice vectors                 reciprocal lattice vectors
     7.696786404  0.000000000  0.000000000     0.129924354 -0.075011849  0.000000000
     3.848392758  6.665612809  0.000000000     0.000000000  0.150023716  0.000000000
     0.000000000  0.000000000 24.272106894     0.000000000  0.000000000  0.041199555

  length of vectors
     7.696786404  7.696786404 24.272106894     0.150023716  0.150023716  0.041199555


 FORCES acting on ions
    electron-ion (+dipol)            ewald-force                    non-local-force                 convergence-correction
 -----------------------------------------------------------------------------------------------
   0.573E-02 0.175E-01 0.375E+04   -.452E-03 -.100E-01 -.374E+04   0.236E-03 -.502E-02 -.238E+01   -.534E-02 -.133E-02 0.340E+00
   -.877E+00 -.628E+00 0.374E+04   0.815E+00 0.635E+00 -.374E+04   0.661E-01 0.165E+00 -.182E+01   0.842E-02 -.156E+00 0.415E+00
   0.870E+00 -.640E+00 0.374E+04   -.815E+00 0.636E+00 -.374E+04   -.663E-01 0.165E+00 -.182E+01   -.234E-02 -.143E+00 0.421E+00
   -.979E+00 -.453E+00 0.374E+04   0.966E+00 0.401E+00 -.374E+04   0.185E+00 -.326E-01 -.186E+01   -.149E+00 0.850E-01 0.422E+00
   -.174E-01 -.192E-01 0.374E+04   0.104E-02 0.174E-01 -.374E+04   -.915E-02 -.114E-01 -.129E+01   0.258E-01 0.111E-01 0.637E+00
   0.992E+00 -.455E+00 0.374E+04   -.967E+00 0.400E+00 -.374E+04   -.185E+00 -.336E-01 -.186E+01   0.137E+00 0.883E-01 0.428E+00
   -.153E+00 0.107E+01 0.374E+04   0.152E+00 -.104E+01 -.374E+04   0.124E+00 -.130E+00 -.188E+01   -.115E+00 0.783E-01 0.407E+00
   0.144E+00 0.108E+01 0.374E+04   -.151E+00 -.104E+01 -.374E+04   -.126E+00 -.130E+00 -.188E+01   0.126E+00 0.668E-01 0.406E+00
   0.145E-01 0.334E-01 0.374E+04   -.140E-03 -.720E-02 -.374E+04   0.931E-02 0.425E-02 -.210E+01   -.241E-01 -.281E-01 0.314E+00
   -.545E+01 -.315E+01 0.126E+04   0.587E+01 0.340E+01 -.125E+04   -.411E+00 -.253E+00 -.942E+00   -.250E-01 -.289E-02 -.376E+00
   -.229E-01 -.661E+01 0.124E+04   0.562E-02 0.631E+01 -.124E+04   -.850E-02 0.216E+00 -.355E-01   0.262E-01 0.317E-01 -.421E+00
   0.547E+01 -.316E+01 0.126E+04   -.587E+01 0.340E+01 -.125E+04   0.412E+00 -.253E+00 -.941E+00   0.122E-01 -.435E-03 -.379E+00
   -.571E+01 0.319E+01 0.124E+04   0.546E+01 -.304E+01 -.124E+04   0.190E+00 -.118E+00 -.313E-01   0.232E-01 0.320E-02 -.430E+00
   0.569E+01 0.320E+01 0.124E+04   -.545E+01 -.305E+01 -.124E+04   -.208E+00 -.116E+00 -.302E-01   0.134E-01 -.759E-02 -.443E+00
   0.152E-01 -.221E+01 0.125E+04   -.570E-02 0.196E+01 -.125E+04   0.166E-02 0.140E+00 -.947E+00   -.110E-01 0.998E-01 -.447E+00
   0.261E-02 0.642E+01 0.126E+04   0.937E-03 -.689E+01 -.125E+04   0.133E-02 0.480E+00 -.902E+00   -.489E-02 0.134E-01 -.375E+00
   -.179E+01 0.117E+01 0.125E+04   0.161E+01 -.104E+01 -.125E+04   0.929E-01 -.539E-01 -.908E+00   0.802E-01 -.642E-01 -.441E+00
   0.178E+01 0.115E+01 0.125E+04   -.161E+01 -.104E+01 -.125E+04   -.944E-01 -.555E-01 -.909E+00   -.743E-01 -.515E-01 -.429E+00
   0.458E-01 -.834E+01 -.123E+04   -.431E-01 0.843E+01 0.122E+04   -.131E-02 -.742E-01 0.878E+00   -.149E-02 -.281E-01 -.658E+00
   -.606E+02 -.356E+02 -.130E+04   0.621E+02 0.365E+02 0.130E+04   -.120E+01 -.703E+00 -.997E+00   -.317E+00 -.176E+00 -.924E+00
   0.606E+02 -.356E+02 -.130E+04   -.621E+02 0.365E+02 0.130E+04   0.122E+01 -.700E+00 -.995E+00   0.292E+00 -.190E+00 -.927E+00
   -.320E+02 0.182E+02 -.125E+04   0.317E+02 -.181E+02 0.125E+04   0.464E+00 -.270E+00 0.663E+00   -.141E+00 0.921E-01 -.650E+00
   -.198E-01 0.699E+02 -.130E+04   0.356E-01 -.716E+02 0.130E+04   0.895E-02 0.142E+01 -.792E+00   -.254E-01 0.330E+00 -.910E+00
   0.320E+02 0.183E+02 -.125E+04   -.317E+02 -.181E+02 0.125E+04   -.481E+00 -.270E+00 0.663E+00   0.180E+00 0.834E-01 -.649E+00
   0.671E+01 0.471E+01 -.123E+04   -.680E+01 -.473E+01 0.123E+04   0.867E-01 0.144E-01 0.101E+01   0.154E-01 0.222E-01 -.637E+00
   -.668E+01 0.475E+01 -.123E+04   0.679E+01 -.477E+01 0.123E+04   -.697E-01 0.126E-01 0.101E+01   -.556E-01 0.259E-01 -.637E+00
   -.287E-01 -.361E+02 -.125E+04   0.120E-01 0.357E+02 0.125E+04   -.949E-02 0.542E+00 0.635E+00   0.265E-01 -.164E+00 -.641E+00
   0.129E+00 0.248E+01 -.364E+04   -.122E+00 -.257E+01 0.364E+04   0.150E-02 0.974E-01 0.149E+01   -.826E-02 0.132E-02 -.481E+00
   -.408E+02 -.767E+02 -.363E+04   0.416E+02 0.776E+02 0.363E+04   -.637E+00 -.651E+00 -.252E-01   -.171E+00 -.329E+00 -.403E+00
   0.407E+02 -.770E+02 -.363E+04   -.415E+02 0.779E+02 0.363E+04   0.621E+00 -.655E+00 -.286E-01   0.206E+00 -.328E+00 -.412E+00
   -.903E+02 -.584E+00 -.363E+04   0.917E+02 0.840E+00 0.363E+04   -.102E+01 -.272E+00 -.135E+00   -.393E+00 0.207E-01 -.415E+00
   0.908E+02 -.541E+00 -.363E+04   -.922E+02 0.796E+00 0.363E+04   0.100E+01 -.271E+00 -.130E+00   0.422E+00 0.201E-01 -.414E+00
   -.509E+02 0.798E+02 -.364E+04   0.513E+02 -.810E+02 0.364E+04   -.215E+00 0.869E+00 0.375E+00   -.174E+00 0.334E+00 -.401E+00
   0.508E+02 0.802E+02 -.364E+04   -.512E+02 -.813E+02 0.364E+04   0.198E+00 0.870E+00 0.371E+00   0.208E+00 0.332E+00 -.392E+00
   0.103E+00 0.178E+01 -.366E+04   -.916E-01 -.174E+01 0.365E+04   0.101E-01 -.183E-01 0.215E+01   -.216E-01 -.209E-01 -.323E+00
   -.277E+00 -.473E+01 -.158E+04   0.277E+00 0.467E+01 0.158E+04   0.124E-03 0.642E-01 0.283E+01   -.300E-03 0.313E-02 -.157E+00
   0.677E+02 0.412E+02 -.377E+03   -.745E+02 -.454E+02 0.379E+03   0.680E+01 0.420E+01 -.203E+01   -.136E-01 -.962E-02 0.261E-01
   -.673E+02 0.417E+02 -.377E+03   0.740E+02 -.459E+02 0.380E+03   -.674E+01 0.425E+01 -.210E+01   0.133E-01 -.966E-02 0.263E-01
   -.562E+00 -.551E+02 -.216E+04   0.749E+00 0.962E+02 0.215E+04   -.183E+00 -.411E+02 0.863E+01   0.756E-04 0.320E-02 0.213E+00
 -----------------------------------------------------------------------------------------------
   0.982E-01 0.327E+02 0.188E+02   -.854E-13 -.568E-13 0.114E-10   -.181E+00 -.327E+02 -.906E+01   0.822E-01 0.335E-01 -.972E+01
 
 
 POSITION                                       TOTAL-FORCE (eV/Angst)
 -----------------------------------------------------------------------------------
      0.00000      0.00000      5.37156         0.000202      0.000240     -0.036005
      2.56560      0.00000      5.37156         0.013467      0.015821      0.043893
      5.13119      0.00000      5.37156        -0.013474      0.015713      0.043721
      1.28280      2.22187      5.37156         0.023510     -0.000726      0.042220
      3.84839      2.22187      5.37156         0.000370     -0.003112      0.043461
      6.41399      2.22187      5.37156        -0.023334     -0.000799      0.042247
      2.56560      4.44374      5.37156         0.007656     -0.019318      0.045671
      5.13119      4.44374      5.37156        -0.007766     -0.019282      0.045748
      7.69679      4.44374      5.37156        -0.000360      0.001408      0.010021
      1.28280      0.74062      7.46636        -0.023615     -0.012501     -0.093704
      3.84839      0.74062      7.46636         0.000447     -0.058207     -0.055502
      6.41399      0.74062      7.46636         0.023826     -0.012557     -0.093719
      2.56560      2.96249      7.46636        -0.043553      0.028448     -0.052611
      5.13119      2.96249      7.46636         0.044560      0.028507     -0.052423
      7.69679      2.96249      7.46636         0.000143     -0.006123     -0.005033
      3.84839      5.18437      7.46636         0.000013      0.024538     -0.091359
      6.41399      5.18437      7.46636        -0.004378      0.002079      0.006907
      8.97958      5.18437      7.46636         0.004655      0.001886      0.006918
      7.69679      1.48082      9.55187        -0.000081     -0.012936      0.001819
      2.55960      1.47778      9.55047        -0.034395     -0.015050     -0.094414
      5.13719      1.47778      9.55047         0.033907     -0.015321     -0.094690
      8.97653      3.70488      9.56926         0.026364     -0.022937      0.008927
      3.84839      3.71005      9.55047        -0.000629      0.058260     -0.090021
      6.41705      3.70488      9.56926        -0.025489     -0.023161      0.008990
     10.26275      5.92520      9.55187         0.013966      0.011769      0.005123
      5.13082      5.92520      9.55187        -0.014946      0.011652      0.005059
      7.69679      5.92146      9.56926         0.000312      0.034941      0.001973
      0.00000      0.00000     11.65662         0.000187      0.007256      0.023552
      6.40243      6.64574     11.69071        -0.038382     -0.065769     -0.100730
      8.99114      6.64574     11.69071         0.038867     -0.063981     -0.099395
      8.95659      2.22180     11.69071        -0.047391      0.003522     -0.078623
      6.43698      2.22180     11.69071         0.046036      0.003340     -0.075775
     10.25095      4.46369     11.69071        -0.064408      0.053162     -0.112390
      5.14262      4.46369     11.69071         0.065214      0.052306     -0.111873
      7.69679      4.44374     11.67656        -0.000327     -0.001483      0.032266
      3.84839      2.22187     11.69355         0.000078      0.003391      0.917179
      3.04994      1.65809     14.22028         0.004134     -0.000286     -0.006080
      4.62750      1.65256     14.22877        -0.010042      0.003126     -0.009801
      3.84189      2.18113     13.97219         0.004657     -0.007816      0.018452
 -----------------------------------------------------------------------------------
    total drift:                               -0.001006      0.036120      0.068425


--------------------------------------------------------------------------------------------------------



  FREE ENERGIE OF THE ION-ELECTRON SYSTEM (eV)
  ---------------------------------------------------
  free  energy   TOTEN  =      -147.51081432 eV

  energy  without entropy=     -147.51081432  energy(sigma->0) =     -147.51081432
 


--------------------------------------------------------------------------------------------------------


    POTLOK:  cpu time    0.0340: real time    0.0340


--------------------------------------------------------------------------------------------------------


 stress matrix after NEB project (eV)
    -10.70034      0.01926      0.00960
      0.01926    -10.66570     -0.17120
      0.00960     -0.17120     -4.70558
  FORCES: max atom, RMS     0.020574    0.004188
  FORCE total and by dimension    0.026155    0.018452
  Stress total and by dimension   15.825816   10.700343
     LOOP+:  cpu time  262.1192: real time  262.1419
 -----------------------------------------------------------------------------
|                                                                             |
|           W    W    AA    RRRRR   N    N  II  N    N   GGGG   !!!           |
|           W    W   A  A   R    R  NN   N  II  NN   N  G    G  !!!           |
|           W    W  A    A  R    R  N N  N  II  N N  N  G       !!!           |
|           W WW W  AAAAAA  RRRRR   N  N N  II  N  N N  G  GGG   !            |
|           WW  WW  A    A  R   R   N   NN  II  N   NN  G    G                |
|           W    W  A    A  R    R  N    N  II  N    N   GGGG   !!!           |
|                                                                             |
|     Tetrahedron method does not include variations of the Fermi             |
|     occupations, so forces and stress will be inaccurate. We suggest        |
|     using a different smearing scheme ISMEAR = 1 or 2 for metals in         |
|     relaxations.                                                            |
|                                                                             |
 -----------------------------------------------------------------------------

    4ORBIT:  cpu time    0.0000: real time    0.0000



 total charge

# of ion       s       p       d       tot
------------------------------------------
    1        0.450   0.282   9.188   9.920
    2        0.447   0.287   9.184   9.917
    3        0.447   0.287   9.184   9.917
    4        0.446   0.286   9.185   9.918
    5        0.449   0.287   9.179   9.915
    6        0.446   0.286   9.185   9.917
    7        0.446   0.287   9.184   9.917
    8        0.446   0.287   9.184   9.917
    9        0.448   0.284   9.187   9.919
   10        0.444   0.371   9.174   9.989
   11        0.442   0.365   9.182   9.989
   12        0.444   0.371   9.174   9.989
   13        0.441   0.365   9.182   9.989
   14        0.441   0.365   9.182   9.989
   15        0.438   0.370   9.174   9.982
   16        0.443   0.371   9.174   9.989
   17        0.438   0.370   9.175   9.982
   18        0.438   0.370   9.175   9.982
   19        0.442   0.369   9.177   9.988
   20        0.471   0.402   9.151  10.024
   21        0.471   0.402   9.151  10.023
   22        0.430   0.372   9.178   9.980
   23        0.471   0.401   9.152  10.024
   24        0.430   0.372   9.178   9.980
   25        0.442   0.368   9.178   9.988
   26        0.442   0.368   9.178   9.988
   27        0.430   0.372   9.178   9.980
   28        0.444   0.299   9.176   9.919
   29        0.483   0.328   9.154   9.965
   30        0.483   0.328   9.154   9.965
   31        0.484   0.327   9.154   9.964
   32        0.483   0.327   9.153   9.964
   33        0.482   0.322   9.157   9.961
   34        0.482   0.322   9.157   9.961
   35        0.438   0.302   9.176   9.917
   36        0.726   0.659   3.130   4.515
   37        0.598   0.117   0.000   0.715
   38        0.598   0.117   0.000   0.715
   39        1.565   3.625   0.000   5.190
--------------------------------------------------
tot         19.290  16.389 324.183 359.861
 
 BZINTS: Fermi energy:   -0.018029;  398.000000 electrons
         Band energy:-0.123446E+04;  BLOECHL correction:   -0.024187

 total amount of memory used by VASP MPI-rank0   226079. kBytes
=======================================================================

   base      :      30000. kBytes
   nonlr-proj:      18728. kBytes
   fftplans  :       3394. kBytes
   grid      :      15015. kBytes
   one-center:        606. kBytes
   wavefun   :     158336. kBytes
 
  
  
 General timing and accounting informations for this job:
 ========================================================
  
                  Total CPU time used (sec):      281.229
                            User time (sec):      271.695
                          System time (sec):        9.534
                         Elapsed time (sec):      281.786
  
                   Maximum memory used (kb):      499352.
                   Average memory used (kb):          N/A
  
                          Minor page faults:       121556
                          Major page faults:            0
                 Voluntary context switches:         6805
