 vasp.6.2.0 18Jan21 (build Jun 12 2021 23:27:24) complex                        
  
 executed on             LinuxIFC date 2022.05.26  20:25:01
 running on   28 total cores
 distrk:  each k-point on   28 cores,    1 groups
 distr:  one band on NCORE=   1 cores,   28 groups


--------------------------------------------------------------------------------------------------------


 INCAR:
   ISMEAR = -5
   SIGMA = 0.1
   ISPIN = 1
   EDIFF = 1.d-5
   EDIFFG = -0.01
   NSW = 0
   NELM = 150
   ENCUT = 500
   ISIF = 2
   IBRION = 2
   LREAL = Auto
   ALGO = Fast
   ICHARG = 11
   LORBIT = 10
   LCHARG = .F.
   LWAVE = .F.

 POTCAR:    PAW_PBE Cu 22Jun2005                  
 POTCAR:    PAW_PBE Cr 06Sep2000                  
 -----------------------------------------------------------------------------
|                                                                             |
|           W    W    AA    RRRRR   N    N  II  N    N   GGGG   !!!           |
|           W    W   A  A   R    R  NN   N  II  NN   N  G    G  !!!           |
|           W    W  A    A  R    R  N N  N  II  N N  N  G       !!!           |
|           W WW W  AAAAAA  RRRRR   N  N N  II  N  N N  G  GGG   !            |
|           WW  WW  A    A  R   R   N   NN  II  N   NN  G    G                |
|           W    W  A    A  R    R  N    N  II  N    N   GGGG   !!!           |
|                                                                             |
|     For optimal performance we recommend to set                             |
|       NCORE = 2 up to number-of-cores-per-socket                            |
|     NCORE specifies how many cores store one orbital (NPAR=cpu/NCORE).      |
|     This setting can greatly improve the performance of VASP for DFT.       |
|     The default, NCORE=1 might be grossly inefficient on modern             |
|     multi-core architectures or massively parallel machines. Do your        |
|     own testing! More info at https://www.vasp.at/wiki/index.php/NCORE      |
|     Unfortunately you need to use the default for GW and RPA                |
|     calculations (for HF NCORE is supported but not extensively tested      |
|     yet).                                                                   |
|                                                                             |
 -----------------------------------------------------------------------------

 POTCAR:    PAW_PBE Cu 22Jun2005                  
   VRHFIN =Cu: d10 p1                                                                               
   LEXCH  = PE                                                                                      
   EATOM  =  1390.9808 eV,  102.2342 Ry                                                             
                                                                                                    
   TITEL  = PAW_PBE Cu 22Jun2005                                                                    
   LULTRA =        F    use ultrasoft PP ?                                                          
   IUNSCR =        1    unscreen: 0-lin 1-nonlin 2-no                                               
   RPACOR =    2.000    partial core radius                                                         
   POMASS =   63.546; ZVAL   =   11.000    mass and valenz                                          
   RCORE  =    2.300    outmost cutoff radius                                                       
   RWIGS  =    2.200; RWIGS  =    1.164    wigner-seitz radius (au A)                               
   ENMAX  =  295.446; ENMIN  =  221.585 eV                                                          
   ICORE  =        3    local potential                                                             
   LCOR   =        T    correct aug charges                                                         
   LPAW   =        T    paw PP                                                                      
   EAUG   =  586.980                                                                                
   DEXC   =    0.000                                                                                
   RMAX   =    2.344    core radius for proj-oper                                                   
   RAUG   =    1.300    factor for augmentation sphere                                              
   RDEP   =    2.302    radius for radial grids                                                     
   RDEPT  =    1.771    core radius for aug-charge                                                  
                                                                                                    
   Atomic configuration                                                                             
    9 entries                                                                                       
     n  l   j            E        occ.                                                              
     1  0  0.50     -8850.2468   2.0000                                                             
     2  0  0.50     -1062.3498   2.0000                                                             
     2  1  1.50      -916.8226   6.0000                                                             
     3  0  0.50      -114.6929   2.0000                                                             
     3  1  1.50       -72.1325   6.0000                                                             
     3  2  2.50        -5.0394  10.0000                                                             
     4  0  0.50        -4.6097   1.0000                                                             
     4  1  0.50        -4.0817   0.0000                                                             
     4  3  2.50        -1.3606   0.0000                                                             
   Description                                                                                      
     l       E           TYP  RCUT    TYP  RCUT                                                     
     2     -5.0393973     23  2.200                                                                 
     2     10.8846608     23  2.200                                                                 
     0     -4.6097109     23  2.200                                                                 
     0      8.2520465     23  2.200                                                                 
     1     -2.7211652     23  2.200                                                                 
     1     21.7055443     23  2.200                                                                 
     3      2.7211652     23  2.300                                                                 
  local pseudopotential read in
  partial core-charges read in
  partial kinetic energy density read in
  atomic valenz-charges read in
  non local Contribution for L=           2  read in
    real space projection operators read in
  non local Contribution for L=           2  read in
    real space projection operators read in
  non local Contribution for L=           0  read in
    real space projection operators read in
  non local Contribution for L=           0  read in
    real space projection operators read in
  non local Contribution for L=           1  read in
    real space projection operators read in
  non local Contribution for L=           1  read in
    real space projection operators read in
    PAW grid and wavefunctions read in
 
   number of l-projection  operators is LMAX  =           6
   number of lm-projection operators is LMMAX =          18
 
 POTCAR:    PAW_PBE Cr 06Sep2000                  
   VRHFIN =Cr : d5 s1                                                                               
   LEXCH  = PE                                                                                      
   EATOM  =   276.8859 eV,   20.3505 Ry                                                             
                                                                                                    
   TITEL  = PAW_PBE Cr 06Sep2000                                                                    
   LULTRA =        F    use ultrasoft PP ?                                                          
   IUNSCR =        1    unscreen: 0-lin 1-nonlin 2-no                                               
   RPACOR =    2.080    partial core radius                                                         
   POMASS =   51.996; ZVAL   =    6.000    mass and valenz                                          
   RCORE  =    2.500    outmost cutoff radius                                                       
   RWIGS  =    2.500; RWIGS  =    1.323    wigner-seitz radius (au A)                               
   ENMAX  =  227.080; ENMIN  =  170.310 eV                                                          
   RCLOC  =    1.721    cutoff for local pot                                                        
   LCOR   =        T    correct aug charges                                                         
   LPAW   =        T    paw PP                                                                      
   EAUG   =  402.108                                                                                
   DEXC   =    0.000                                                                                
   RMAX   =    2.552    core radius for proj-oper                                                   
   RAUG   =    1.300    factor for augmentation sphere                                              
   RDEP   =    2.609    radius for radial grids                                                     
   RDEPT  =    2.065    core radius for aug-charge                                                  
                                                                                                    
   Atomic configuration                                                                             
    9 entries                                                                                       
     n  l   j            E        occ.                                                              
     1  0  0.50     -5880.4963   2.0000                                                             
     2  0  0.50      -667.0865   2.0000                                                             
     2  1  1.50      -560.6250   6.0000                                                             
     3  0  0.50       -73.9860   2.0000                                                             
     3  1  1.50       -45.4378   6.0000                                                             
     3  2  2.50        -2.9137   5.0000                                                             
     4  0  0.50        -4.0071   1.0000                                                             
     4  1  0.50        -1.2789   0.0000                                                             
     4  3  2.50        -1.3606   0.0000                                                             
   Description                                                                                      
     l       E           TYP  RCUT    TYP  RCUT                                                     
     2     -2.9136677     23  2.500                                                                 
     2     -4.2742503     23  2.500                                                                 
     0     -4.0071322     23  2.500                                                                 
     0      9.4498801     23  2.500                                                                 
     1     -5.4423304     23  2.500                                                                 
     1     27.2116520     23  2.500                                                                 
  local pseudopotential read in
  partial core-charges read in
  partial kinetic energy density read in
  atomic valenz-charges read in
  non local Contribution for L=           2  read in
    real space projection operators read in
  non local Contribution for L=           2  read in
    real space projection operators read in
  non local Contribution for L=           0  read in
    real space projection operators read in
  non local Contribution for L=           0  read in
    real space projection operators read in
  non local Contribution for L=           1  read in
    real space projection operators read in
  non local Contribution for L=           1  read in
    real space projection operators read in
    PAW grid and wavefunctions read in
 
   number of l-projection  operators is LMAX  =           6
   number of lm-projection operators is LMMAX =          18
 
 Optimization of the real space projectors (new method)

 maximal supplied QI-value         = 16.25
 optimisation between [QCUT,QGAM] = [ 11.38, 22.75] = [ 36.24,144.96] Ry 
 Optimized for a Real-space Cutoff    1.52 Angstroem

   l    n(q)    QCUT    max X(q) W(low)/X(q) W(high)/X(q)  e(spline) 
   2      9    11.376     4.610    0.21E-03    0.10E-03    0.26E-06
   2      9    11.376     8.522    0.33E-03    0.16E-03    0.37E-06
   0     10    11.376    51.609    0.62E-04    0.20E-04    0.13E-06
   0     10    11.376    27.747    0.54E-04    0.20E-04    0.13E-06
   1     10    11.376    20.408    0.13E-04    0.99E-04    0.19E-06
   1     10    11.376    13.425    0.12E-04    0.87E-04    0.17E-06
 Optimization of the real space projectors (new method)

 maximal supplied QI-value         = 15.12
 optimisation between [QCUT,QGAM] = [ 11.34, 22.83] = [ 36.00,145.93] Ry 
 Optimized for a Real-space Cutoff    1.43 Angstroem

   l    n(q)    QCUT    max X(q) W(low)/X(q) W(high)/X(q)  e(spline) 
   2      9    11.338    94.395    0.18E-03    0.10E-02    0.64E-06
   2      9    11.338    88.078    0.18E-03    0.10E-02    0.65E-06
   0     10    11.338    50.173    0.13E-03    0.16E-03    0.96E-07
   0     10    11.338    24.906    0.12E-03    0.14E-03    0.88E-07
   1      9    11.338    12.133    0.13E-03    0.15E-03    0.24E-06
   1      9    11.338     7.290    0.10E-03    0.10E-03    0.18E-06
  PAW_PBE Cu 22Jun2005                  :
 energy of atom  1       EATOM=-1390.9808
 kinetic energy error for atom=    0.0043 (will be added to EATOM!!)
  PAW_PBE Cr 06Sep2000                  :
 energy of atom  2       EATOM= -276.8859
 kinetic energy error for atom=    0.0012 (will be added to EATOM!!)
 
 
 POSCAR: Cu-Cr
  positions in direct lattice
  velocities in cartesian coordinates
 exchange correlation table for  LEXCH =        8
   RHO(1)=    0.500       N(1)  =     2000
   RHO(2)=  100.500       N(2)  =     4000

 VTST: version 3.2, (02/03/18)

 CHAIN: initializing optimizer
 
 OPT: Using VASP Conjugate-Gradient optimizer
 CHAIN: Read ICHAIN            0
 
 POSCAR: Cu-Cr
  positions in direct lattice
  velocities in cartesian coordinates
 


--------------------------------------------------------------------------------------------------------


 ion  position               nearest neighbor table
   1  0.000  0.000  0.252-   7 2.57   3 2.57   4 2.57   2 2.57   6 2.57   8 2.57  12 2.57  10 2.57
                            16 2.57
   2  0.333  0.000  0.252-   8 2.57   9 2.57   5 2.57   1 2.57   3 2.57  11 2.57   4 2.57  10 2.57
                            17 2.57
   3  0.667  0.000  0.252-   1 2.57   7 2.57   6 2.57   9 2.57   2 2.57  12 2.57   5 2.57  18 2.57
                            11 2.57
   4  0.000  0.333  0.252-   5 2.57   6 2.57   1 2.57   7 2.57   2 2.57  13 2.57   9 2.57  10 2.57
                            15 2.57
   5  0.333  0.333  0.252-   4 2.57   2 2.57   7 2.57  13 2.57   8 2.57   6 2.57   3 2.57  11 2.57
                            14 2.57
   6  0.667  0.333  0.252-   4 2.57   9 2.57  15 2.57   3 2.57   1 2.57   8 2.57  14 2.57   5 2.57
                            12 2.57
   7  0.000  0.667  0.252-   1 2.57   3 2.57  16 2.57  18 2.57   4 2.57   5 2.57   8 2.57   9 2.57
                            13 2.57
   8  0.333  0.667  0.252-   9 2.57   2 2.57  17 2.57   6 2.57   1 2.57   7 2.57   5 2.57  14 2.57
                            16 2.57
   9  0.667  0.667  0.252-   8 2.57   6 2.57   2 2.57  17 2.57   3 2.57   7 2.57   4 2.57  15 2.57
                            18 2.57
  10  0.111  0.111  0.351-  20 2.55  26 2.56  19 2.56  11 2.57  12 2.57  13 2.57   1 2.57   2 2.57
                             4 2.57  15 2.57  16 2.57  17 2.57
  11  0.444  0.111  0.351-  20 2.55  21 2.55  10 2.57  13 2.57   2 2.57  17 2.57  14 2.57  12 2.57
                             5 2.57   3 2.57  18 2.57  27 2.57
  12  0.778  0.111  0.351-  21 2.55  19 2.56  25 2.56  15 2.57  10 2.57  14 2.57  18 2.57   3 2.57
                             1 2.57  16 2.57  11 2.57   6 2.57
  13  0.111  0.444  0.351-  23 2.55  20 2.55  16 2.57  18 2.57  10 2.57  11 2.57  14 2.57   5 2.57
                             4 2.57   7 2.57  15 2.57  22 2.57
  14  0.444  0.444  0.351-  21 2.55  23 2.55  15 2.57  17 2.57  12 2.57  16 2.57  13 2.57  11 2.57
                             6 2.57   8 2.57   5 2.57  24 2.57
  15  0.778  0.444  0.351-  19 2.56  24 2.56  22 2.56  14 2.57  17 2.57  12 2.57   6 2.57  18 2.57
                            10 2.57   9 2.57  13 2.57   4 2.57
  16  0.111  0.778  0.351-  23 2.55  25 2.56  26 2.56  18 2.57  13 2.57   7 2.57  14 2.57  17 2.57
                            12 2.57  10 2.57   8 2.57   1 2.57
  17  0.444  0.778  0.351-  26 2.56  27 2.56  24 2.56  14 2.57  15 2.57   8 2.57   9 2.57  11 2.57
                            16 2.57  18 2.57  10 2.57   2 2.57
  18  0.778  0.778  0.351-  25 2.56  22 2.56  27 2.56  16 2.57  13 2.57   7 2.57  15 2.57  12 2.57
                            17 2.57   9 2.57   3 2.57  11 2.57
  19  0.889  0.222  0.449-  12 2.56  10 2.56  15 2.56  28 2.56  25 2.57  26 2.57  22 2.57  24 2.57
                            21 2.57  20 2.57  32 2.58  31 2.58
  20  0.222  0.222  0.448-  36 2.50  11 2.55  13 2.55  10 2.55  23 2.56  21 2.56  26 2.57  19 2.57
                            29 2.57  31 2.57  27 2.57  22 2.57
  21  0.555  0.222  0.448-  36 2.50  14 2.55  11 2.55  12 2.55  20 2.56  23 2.56  19 2.57  25 2.57
                            32 2.57  30 2.57  24 2.57  27 2.57
  22  0.888  0.556  0.449-  35 2.56  24 2.56  27 2.56  18 2.56  15 2.56  31 2.56  33 2.56  19 2.57
                            25 2.57  13 2.57  23 2.57  20 2.57
  23  0.222  0.555  0.448-  36 2.50  13 2.55  14 2.55  16 2.55  20 2.56  21 2.56  25 2.57  26 2.57
                            33 2.57  34 2.57  22 2.57  24 2.57
  24  0.556  0.556  0.449-  35 2.56  22 2.56  27 2.56  15 2.56  17 2.56  32 2.56  34 2.56  19 2.57
                            26 2.57  14 2.57  21 2.57  23 2.57
  25  0.889  0.889  0.449-  12 2.56  16 2.56  18 2.56  28 2.56  19 2.57  26 2.57  22 2.57  27 2.57
                            21 2.57  23 2.57  33 2.58  30 2.58
  26  0.222  0.889  0.449-  10 2.56  16 2.56  17 2.56  28 2.56  25 2.57  19 2.57  27 2.57  24 2.57
                            20 2.57  23 2.57  29 2.58  34 2.58
  27  0.556  0.888  0.449-  35 2.56  24 2.56  22 2.56  17 2.56  18 2.56  29 2.56  30 2.56  26 2.57
                            25 2.57  11 2.57  20 2.57  21 2.57
  28  0.000  0.000  0.547-  25 2.56  19 2.56  26 2.56  33 2.57  30 2.57  31 2.57  29 2.57  32 2.57
                            34 2.57
  29  0.333  0.002  0.547-  31 2.55  30 2.55  36 2.55  27 2.56  20 2.57  28 2.57  35 2.57  26 2.58
                            34 2.60
  30  0.665  0.002  0.547-  32 2.55  29 2.55  36 2.55  27 2.56  21 2.57  28 2.57  35 2.57  25 2.58
                            33 2.60
  31  0.002  0.333  0.547-  29 2.55  33 2.55  36 2.55  22 2.56  20 2.57  28 2.57  35 2.57  19 2.58
                            32 2.60
  32  0.665  0.333  0.547-  30 2.55  34 2.55  36 2.55  24 2.56  21 2.57  28 2.57  35 2.57  19 2.58
                            31 2.60
  33  0.002  0.665  0.547-  34 2.55  31 2.55  36 2.55  22 2.56  23 2.57  28 2.57  35 2.57  25 2.58
                            30 2.60
  34  0.333  0.665  0.547-  33 2.55  32 2.55  36 2.55  24 2.56  23 2.57  28 2.57  35 2.57  26 2.58
                            29 2.60
  35  0.667  0.667  0.547-  24 2.56  27 2.56  22 2.56  34 2.57  32 2.57  29 2.57  30 2.57  33 2.57
                            31 2.57
  36  0.333  0.333  0.543-  23 2.50  20 2.50  21 2.50  31 2.55  29 2.55  33 2.55  34 2.55  32 2.55
                            30 2.55
 
  LATTYP: Found a hexagonal cell.
 ALAT       =     7.6967864036
 C/A-ratio  =     2.7653617908
  
  Lattice vectors:
  
 A1 = (  -3.8483927580,  -6.6656128093,   0.0000000000)
 A2 = (   7.6967864037,   0.0000000000,   0.0000000000)
 A3 = (   0.0000000000,   0.0000000000,  21.2843990326)


Analysis of symmetry for initial positions (statically):
=====================================================================
 Subroutine PRICEL returns:
 Original cell was already a primitive cell.
 

 Routine SETGRP: Setting up the symmetry group for a 
 hexagonal supercell.


 Subroutine GETGRP returns: Found  6 space group operations
 (whereof  6 operations were pure point group operations)
 out of a pool of 24 trial point group operations.


The static configuration has the point symmetry C_3v.


Analysis of symmetry for dynamics (positions and initial velocities):
=====================================================================
 Subroutine PRICEL returns:
 Original cell was already a primitive cell.
 

 Routine SETGRP: Setting up the symmetry group for a 
 hexagonal supercell.


 Subroutine GETGRP returns: Found  6 space group operations
 (whereof  6 operations were pure point group operations)
 out of a pool of 24 trial point group operations.


The dynamic configuration has the point symmetry C_3v.


Analysis of constrained symmetry for selective dynamics:
=====================================================================
 Subroutine PRICEL returns:
 Original cell was already a primitive cell.
 

 Routine SETGRP: Setting up the symmetry group for a 
 hexagonal supercell.


 Subroutine GETGRP returns: Found  6 space group operations
 (whereof  6 operations were pure point group operations)
 out of a pool of 24 trial point group operations.


The constrained configuration has the point symmetry C_3v.


 Subroutine INISYM returns: Found  6 space group operations
 (whereof  6 operations are pure point group operations),
 and found     1 'primitive' translations


----------------------------------------------------------------------------------------

                                     Primitive cell                                     

  volume of cell :    1091.9705

  direct lattice vectors                    reciprocal lattice vectors
     7.696786404  0.000000000  0.000000000     0.129924354 -0.075011849  0.000000000
     3.848392758  6.665612809  0.000000000     0.000000000  0.150023716  0.000000000
     0.000000000  0.000000000 21.284399033     0.000000000  0.000000000  0.046982769

  length of vectors
     7.696786404  7.696786404 21.284399033     0.150023716  0.150023716  0.046982769

  position of ions in fractional coordinates (direct lattice)
     0.000000000  0.000000000  0.252370745
     0.333333343  0.000000000  0.252370745
     0.666666687  0.000000000  0.252370745
     1.000000000  0.333333343  0.252370745
     0.333333313  0.333333343  0.252370745
     0.666666687  0.333333343  0.252370745
     1.000000000  0.666666687  0.252370745
     0.333333373  0.666666687  0.252370745
     0.666666627  0.666666687  0.252370745
     0.111111119  0.111111112  0.350790262
     0.444444418  0.111111112  0.350790262
     0.777777791  0.111111112  0.350790262
     0.111111119  0.444444448  0.350790262
     0.444444478  0.444444448  0.350790262
     0.777777731  0.444444448  0.350790262
     0.111111112  0.777777731  0.350790262
     0.444444478  0.777777731  0.350790262
     0.777777851  0.777777731  0.350790262
     0.888897442  0.222205133  0.448768362
     0.222265583  0.222265568  0.448432901
     0.555468893  0.222265568  0.448432901
     0.888328893  0.555835524  0.449118745
     0.222265553  0.555468833  0.448432901
     0.555835584  0.555835524  0.449118745
     0.888897442  0.888897442  0.448768362
     0.222205148  0.888897442  0.448768362
     0.555835524  0.888328893  0.449118745
     0.000000000  0.000000000  0.546867683
     0.333215572  0.002074968  0.547367671
     0.664709491  0.002074968  0.547367671
     0.002074968  0.333215572  0.547367671
     0.664709491  0.333215572  0.547367671
     0.002074968  0.664709491  0.547367671
     0.333215602  0.664709491  0.547367671
     0.666666627  0.666666687  0.547114682
     0.333333313  0.333333343  0.542998502

  ion indices of the primitive-cell ions
   primitive index   ion index
                 1           1
                 2           2
                 3           3
                 4           4
                 5           5
                 6           6
                 7           7
                 8           8
                 9           9
                10          10
                11          11
                12          12
                13          13
                14          14
                15          15
                16          16
                17          17
                18          18
                19          19
                20          20
                21          21
                22          22
                23          23
                24          24
                25          25
                26          26
                27          27
                28          28
                29          29
                30          30
                31          31
                32          32
                33          33
                34          34
                35          35
                36          36

----------------------------------------------------------------------------------------

 
 
 KPOINTS: Automatic mesh                          

Automatic generation of k-mesh.
 Grid dimensions read from file:
 generate k-points for:    8    8    1

 Generating k-lattice:

  Cartesian coordinates                     Fractional coordinates (reciprocal lattice)
     0.016240544 -0.009376481  0.000000000     0.125000000 -0.000000000  0.000000000
     0.000000000  0.018752964  0.000000000     0.000000000  0.125000000  0.000000000
     0.000000000  0.000000000  0.046982769     0.000000000  0.000000000  1.000000000

  Length of vectors
     0.018752964  0.018752964  0.046982769

  Shift w.r.t. Gamma in fractional coordinates (k-lattice)
     0.000000000  0.000000000  0.000000000

 TETIRR: Found     36 inequivalent tetrahedra from      384
 
 Subroutine IBZKPT returns following result:
 ===========================================
 
 Found     10 irreducible k-points:
 
 Following reciprocal coordinates:
            Coordinates               Weight
  0.000000  0.000000  0.000000      1.000000
  0.125000 -0.000000  0.000000      6.000000
  0.250000 -0.000000  0.000000      6.000000
  0.375000 -0.000000  0.000000      6.000000
  0.500000 -0.000000  0.000000      3.000000
  0.250000  0.125000  0.000000      6.000000
  0.375000  0.125000  0.000000     12.000000
  0.500000  0.125000  0.000000     12.000000
  0.500000  0.250000  0.000000      6.000000
 -0.375000  0.250000  0.000000      6.000000
 
 Following cartesian coordinates:
            Coordinates               Weight
  0.000000  0.000000  0.000000      1.000000
  0.016241 -0.009376  0.000000      6.000000
  0.032481 -0.018753  0.000000      6.000000
  0.048722 -0.028129  0.000000      6.000000
  0.064962 -0.037506  0.000000      3.000000
  0.032481  0.000000  0.000000      6.000000
  0.048722 -0.009376  0.000000     12.000000
  0.064962 -0.018753  0.000000     12.000000
  0.064962  0.000000  0.000000      6.000000
 -0.048722  0.065635  0.000000      6.000000
 


--------------------------------------------------------------------------------------------------------




 Dimension of arrays:
   k-points           NKPTS =     10   k-points in BZ     NKDIM =     10   number of bands    NBANDS=    252
   number of dos      NEDOS =    301   number of ions     NIONS =     36
   non local maximal  LDIM  =      6   non local SUM 2l+1 LMDIM =     18
   total plane-waves  NPLWV = 211680
   max r-space proj   IRMAX =   2893   max aug-charges    IRDMAX=  10101
   dimension x,y,z NGX =    42 NGY =   42 NGZ =  120
   dimension x,y,z NGXF=    84 NGYF=   84 NGZF=  240
   support grid    NGXF=    84 NGYF=   84 NGZF=  240
   ions per type =              35   1
   NGX,Y,Z   is equivalent  to a cutoff of   9.07,  9.07,  9.37 a.u.
   NGXF,Y,Z  is equivalent  to a cutoff of  18.14, 18.14, 18.75 a.u.

 SYSTEM =  unknown system                          
 POSCAR =  Cu-Cr                                   

 Startparameter for this run:
   NWRITE =      2    write-flag & timer
   PREC   = normal    normal or accurate (medium, high low for compatibility)
   ISTART =      0    job   : 0-new  1-cont  2-samecut
   ICHARG =     11    charge: 1-file 2-atom 10-const
   ISPIN  =      1    spin polarized calculation?
   LNONCOLLINEAR =      F non collinear calculations
   LSORBIT =      F    spin-orbit coupling
   INIWAV =      1    electr: 0-lowe 1-rand  2-diag
   LASPH  =      F    aspherical Exc in radial PAW
   METAGGA=      F    non-selfconsistent MetaGGA calc.

 Electronic Relaxation 1
   ENCUT  =  500.0 eV  36.75 Ry    6.06 a.u.  14.03 14.03 38.81*2*pi/ulx,y,z
   ENINI  =  500.0     initial cutoff
   ENAUG  =  587.0 eV  augmentation charge cutoff
   NELM   =    150;   NELMIN=  2; NELMDL= -5     # of ELM steps 
   EDIFF  = 0.1E-04   stopping-criterion for ELM
   LREAL  =      T    real-space projection
   NLSPLINE    = F    spline interpolate recip. space projectors
   LCOMPAT=      F    compatible to vasp.4.4
   GGA_COMPAT  = T    GGA compatible to vasp.4.4-vasp.4.6
   LMAXPAW     = -100 max onsite density
   LMAXMIX     =    2 max onsite mixed and CHGCAR
   VOSKOWN=      0    Vosko Wilk Nusair interpolation
   ROPT   =   -0.00050  -0.00050
 Ionic relaxation
   EDIFFG = -.1E-01   stopping-criterion for IOM
   NSW    =      0    number of steps for IOM
   NBLOCK =      1;   KBLOCK =      1    inner block; outer block 
   IBRION =     -1    ionic relax: 0-MD 1-quasi-New 2-CG
   NFREE  =      1    steps in history (QN), initial steepest desc. (CG)
   ISIF   =      2    stress and relaxation
   IWAVPR =     10    prediction:  0-non 1-charg 2-wave 3-comb
   ISYM   =      2    0-nonsym 1-usesym 2-fastsym
   LCORR  =      T    Harris-Foulkes like correction to forces

   POTIM  = 0.5000    time-step for ionic-motion
   TEIN   =    0.0    initial temperature
   TEBEG  =    0.0;   TEEND  =   0.0 temperature during run
   SMASS  =  -3.00    Nose mass-parameter (am)
   estimated Nose-frequenzy (Omega)   =  0.10E-29 period in steps = 0.13E+47 mass=  -0.135E-26a.u.
   SCALEE = 1.0000    scale energy and forces
   NPACO  =    256;   APACO  = 16.0  distance and # of slots for P.C.
   PSTRESS=    0.0 pullay stress

  Mass of Ions in am
   POMASS =  63.55 52.00
  Ionic Valenz
   ZVAL   =  11.00  6.00
  Atomic Wigner-Seitz radii
   RWIGS  =  -1.00 -1.00
  virtual crystal weights 
   VCA    =   1.00  1.00
   NELECT =     391.0000    total number of electrons
   NUPDOWN=      -1.0000    fix difference up-down

 DOS related values:
   EMIN   =  10.00;   EMAX   =-10.00  energy-range for DOS
   EFERMI =   0.00
   ISMEAR =    -5;   SIGMA  =   0.10  broadening in eV -4-tet -1-fermi 0-gaus

 Electronic relaxation 2 (details)
   IALGO  =     68    algorithm
   LDIAG  =      T    sub-space diagonalisation (order eigenvalues)
   LSUBROT=      F    optimize rotation matrix (better conditioning)
   TURBO    =      0    0=normal 1=particle mesh
   IRESTART =      0    0=no restart 2=restart with 2 vectors
   NREBOOT  =      0    no. of reboots
   NMIN     =      0    reboot dimension
   EREF     =   0.00    reference energy to select bands
   IMIX   =      4    mixing-type and parameters
     AMIX     =   0.40;   BMIX     =  1.00
     AMIX_MAG =   1.60;   BMIX_MAG =  1.00
     AMIN     =   0.10
     WC   =   100.;   INIMIX=   1;  MIXPRE=   1;  MAXMIX= -45

 Intra band minimization:
   WEIMIN = 0.0000     energy-eigenvalue tresh-hold
   EBREAK =  0.99E-08  absolut break condition
   DEPER  =   0.30     relativ break condition  

   TIME   =   0.40     timestep for ELM

  volume/ion in A,a.u.               =      30.33       204.69
  Fermi-wavevector in a.u.,A,eV,Ry     =   1.162510  2.196826 18.387322  1.351430
  Thomas-Fermi vector in A             =   2.299070
 
 Write flags
   LWAVE        =      F    write WAVECAR
   LDOWNSAMPLE  =      F    k-point downsampling of WAVECAR
   LCHARG       =      F    write CHGCAR
   LVTOT        =      F    write LOCPOT, total local potential
   LVHAR        =      F    write LOCPOT, Hartree potential only
   LELF         =      F    write electronic localiz. function (ELF)
   LORBIT       =     10    0 simple, 1 ext, 2 COOP (PROOUT), +10 PAW based schemes


 Dipole corrections
   LMONO  =      F    monopole corrections only (constant potential shift)
   LDIPOL =      F    correct potential (dipole corrections)
   IDIPOL =      0    1-x, 2-y, 3-z, 4-all directions 
   EPSILON=  1.0000000 bulk dielectric constant

 Exchange correlation treatment:
   GGA     =    --    GGA type
   LEXCH   =     8    internal setting for exchange type
   VOSKOWN=      0    Vosko Wilk Nusair interpolation
   LHFCALC =     F    Hartree Fock is set to
   LHFONE  =     F    Hartree Fock one center treatment
   AEXX    =    0.0000 exact exchange contribution

 Linear response parameters
   LEPSILON=     F    determine dielectric tensor
   LRPA    =     F    only Hartree local field effects (RPA)
   LNABLA  =     F    use nabla operator in PAW spheres
   LVEL    =     F    velocity operator in full k-point grid
   LINTERFAST=   F  fast interpolation
   KINTER  =     0    interpolate to denser k-point grid
   CSHIFT  =0.1000    complex shift for real part using Kramers Kronig
   OMEGAMAX=  -1.0    maximum frequency
   DEG_THRESHOLD= 0.2000000E-02 threshold for treating states as degnerate
   RTIME   =   -0.100 relaxation time in fs
  (WPLASMAI=    0.000 imaginary part of plasma frequency in eV, 0.658/RTIME)
   DFIELD  = 0.0000000 0.0000000 0.0000000 field for delta impulse in time
 
 Orbital magnetization related:
   ORBITALMAG=     F  switch on orbital magnetization
   LCHIMAG   =     F  perturbation theory with respect to B field
   DQ        =  0.001000  dq finite difference perturbation B field
   LLRAUG    =     F  two centre corrections for induced B field



--------------------------------------------------------------------------------------------------------


 Static calculation
 charge density and potential remain constant during run
 non-spin polarized calculation
 RMM-DIIS sequential band-by-band and
  variant of blocked Davidson during initial phase
 perform sub-space diagonalisation
    before iterative eigenvector-optimisation
 no mixing
 using additional bands           56
 real space projection scheme for non local part
 use partial core corrections
 calculate Harris-corrections to forces 
   (improved forces if not selfconsistent)
 use gradient corrections 
 WARNING: stress and forces are not correct
  (second derivative of E(xc) not defined)
 use of overlap-Matrix (Vanderbilt PP)
 Fermi weights with tetrahedron method with Bloechl corrections


--------------------------------------------------------------------------------------------------------


  energy-cutoff  :      500.00
  volume of cell :     1091.97
      direct lattice vectors                 reciprocal lattice vectors
     7.696786404  0.000000000  0.000000000     0.129924354 -0.075011849  0.000000000
     3.848392758  6.665612809  0.000000000     0.000000000  0.150023716  0.000000000
     0.000000000  0.000000000 21.284399033     0.000000000  0.000000000  0.046982769

  length of vectors
     7.696786404  7.696786404 21.284399033     0.150023716  0.150023716  0.046982769


 
 k-points in units of 2pi/SCALE and weight: Automatic mesh                          
   0.00000000  0.00000000  0.00000000       0.016
   0.01624054 -0.00937648  0.00000000       0.094
   0.03248109 -0.01875296  0.00000000       0.094
   0.04872163 -0.02812944  0.00000000       0.094
   0.06496218 -0.03750592  0.00000000       0.047
   0.03248109  0.00000000  0.00000000       0.094
   0.04872163 -0.00937648  0.00000000       0.188
   0.06496218 -0.01875296  0.00000000       0.188
   0.06496218  0.00000000  0.00000000       0.094
  -0.04872163  0.06563537  0.00000000       0.094
 
 k-points in reciprocal lattice and weights: Automatic mesh                          
   0.00000000  0.00000000  0.00000000       0.016
   0.12500000 -0.00000000  0.00000000       0.094
   0.25000000 -0.00000000  0.00000000       0.094
   0.37500000 -0.00000000  0.00000000       0.094
   0.50000000 -0.00000000  0.00000000       0.047
   0.25000000  0.12500000  0.00000000       0.094
   0.37500000  0.12500000  0.00000000       0.188
   0.50000000  0.12500000  0.00000000       0.188
   0.50000000  0.25000000  0.00000000       0.094
  -0.37500000  0.25000000  0.00000000       0.094
 
 position of ions in fractional coordinates (direct lattice) 
   0.00000000  0.00000000  0.25237075
   0.33333334  0.00000000  0.25237075
   0.66666669  0.00000000  0.25237075
   0.00000000  0.33333334  0.25237075
   0.33333331  0.33333334  0.25237075
   0.66666669  0.33333334  0.25237075
   0.00000000  0.66666669  0.25237075
   0.33333337  0.66666669  0.25237075
   0.66666663  0.66666669  0.25237075
   0.11111112  0.11111111  0.35079026
   0.44444442  0.11111111  0.35079026
   0.77777779  0.11111111  0.35079026
   0.11111112  0.44444445  0.35079026
   0.44444448  0.44444445  0.35079026
   0.77777773  0.44444445  0.35079026
   0.11111111  0.77777773  0.35079026
   0.44444448  0.77777773  0.35079026
   0.77777785  0.77777773  0.35079026
   0.88889744  0.22220513  0.44876836
   0.22226558  0.22226557  0.44843290
   0.55546889  0.22226557  0.44843290
   0.88832889  0.55583552  0.44911874
   0.22226555  0.55546883  0.44843290
   0.55583558  0.55583552  0.44911874
   0.88889744  0.88889744  0.44876836
   0.22220515  0.88889744  0.44876836
   0.55583552  0.88832889  0.44911874
   0.00000000  0.00000000  0.54686768
   0.33321557  0.00207497  0.54736767
   0.66470949  0.00207497  0.54736767
   0.00207497  0.33321557  0.54736767
   0.66470949  0.33321557  0.54736767
   0.00207497  0.66470949  0.54736767
   0.33321560  0.66470949  0.54736767
   0.66666663  0.66666669  0.54711468
   0.33333331  0.33333334  0.54299850
 
 position of ions in cartesian coordinates  (Angst):
   0.00000000  0.00000000  5.37155964
   2.56559554  0.00000000  5.37155964
   5.13119109  0.00000000  5.37155964
   1.28279762  2.22187100  5.37155964
   3.84839293  2.22187100  5.37155964
   6.41398872  2.22187100  5.37155964
   2.56559525  4.44374201  5.37155964
   5.13119102  4.44374201  5.37155964
   7.69678588  4.44374201  5.37155964
   1.28279775  0.74062365  7.46635991
   3.84839295  0.74062365  7.46635991
   6.41398873  0.74062365  7.46635991
   2.56559535  2.96249461  7.46635991
   5.13119101  2.96249461  7.46635991
   7.69678586  2.96249461  7.46635991
   3.84839268  5.18436521  7.46635991
   6.41398840  5.18436521  7.46635991
   8.97958418  5.18436521  7.46635991
   7.69678637  1.48113338  9.55176490
   2.56609593  1.48153622  9.54462481
   5.13069063  1.48153622  9.54462481
   8.97635115  3.70498439  9.55922258
   3.84839272  3.70254017  9.54462481
   6.41722117  3.70498439  9.55922258
  10.26248022  5.92504617  9.55176490
   5.13109204  5.92504617  9.55176490
   7.69678578  5.92125645  9.55922258
   0.00000000  0.00000000 11.63974998
   2.57267437  0.01383093 11.65039194
   5.12411226  0.01383093 11.65039194
   1.29831497  2.22108598 11.65039194
   6.39847136  2.22108598 11.65039194
   2.57403377  4.43069610 11.65039194
   5.12275250  4.43069610 11.65039194
   7.69678588  4.44374201 11.64500721
   3.84839293  2.22187100 11.55739679
 


--------------------------------------------------------------------------------------------------------


 k-point   1 :   0.0000 0.0000 0.0000  plane waves:   27671
 k-point   2 :   0.1250-0.0000 0.0000  plane waves:   27649
 k-point   3 :   0.2500-0.0000 0.0000  plane waves:   27714
 k-point   4 :   0.3750-0.0000 0.0000  plane waves:   27740
 k-point   5 :   0.5000-0.0000 0.0000  plane waves:   27782
 k-point   6 :   0.2500 0.1250 0.0000  plane waves:   27698
 k-point   7 :   0.3750 0.1250 0.0000  plane waves:   27702
 k-point   8 :   0.5000 0.1250 0.0000  plane waves:   27747
 k-point   9 :   0.5000 0.2500 0.0000  plane waves:   27734
 k-point  10 :  -0.3750 0.2500 0.0000  plane waves:   27782

 maximum and minimum number of plane-waves per node :     27782    27649

 maximum number of plane-waves:     27782
 maximum index in each direction: 
   IXMAX=   14   IYMAX=   14   IZMAX=   38
   IXMIN=  -14   IYMIN=  -14   IZMIN=  -38


 serial   3D FFT for wavefunctions
 parallel 3D FFT for charge:
    minimum data exchange during FFTs selected (reduces bandwidth)


 total amount of memory used by VASP MPI-rank0   103826. kBytes
=======================================================================

   base      :      30000. kBytes
   nonlr-proj:      17444. kBytes
   fftplans  :       2916. kBytes
   grid      :      11902. kBytes
   one-center:        559. kBytes
   wavefun   :      41005. kBytes
 
     INWAV:  cpu time    0.0001: real time    0.0001
 initial charge density was supplied:
 number of electron     391.0000120 magnetization 
 keeping initial charge density in first step


--------------------------------------------------------------------------------------------------------


 Maximum index for non-local projection operator         2775
 Maximum index for augmentation-charges          504 (set IRDMAX)


--------------------------------------------------------------------------------------------------------


 First call to EWALD:  gamma=   0.172
 Maximum number of real-space cells 4x 4x 2
 Maximum number of reciprocal cells 2x 2x 5

    FEWALD:  cpu time    0.0015: real time    0.0015


--------------------------------------- Iteration      1(   1)  ---------------------------------------


    POTLOK:  cpu time    0.0332: real time    0.0339
    SETDIJ:  cpu time    0.0221: real time    0.0223
     EDDAV:  cpu time    9.0370: real time    9.0887
 BZINTS: Fermi energy:   13.029780;  391.000000 electrons
         Band energy: 0.251545E+04;  BLOECHL correction:   -0.024994
       DOS:  cpu time    0.0108: real time    0.0110
    --------------------------------------------
      LOOP:  cpu time    9.1032: real time    9.1559

 eigenvalue-minimisations  :  5040
 total energy-change (2. order) : 0.3462075E+04  (-0.1665492E+05)
 number of electron     391.0000120 magnetization 
 augmentation part      391.0000120 magnetization 

 Free energy of the ion-electron system (eV)
  ---------------------------------------------------
  alpha Z        PSCENC =       857.87305077
  Ewald energy   TEWEN  =    145905.55805417
  -Hartree energ DENC   =   -192566.99419677
  -exchange      EXHF   =         0.00000000
  -V(xc)+E(xc)   XCENC  =      1537.43726849
  PAW double counting   =     45960.58478726   -49708.89756145
  entropy T*S    EENTRO =         0.00000000
  eigenvalues    EBANDS =      2515.45011318
  atomic energy  EATOM  =     48961.06377618
  Solvation  Ediel_sol  =         0.00000000
  ---------------------------------------------------
  free energy    TOTEN  =      3462.07529183 eV

  energy without entropy =     3462.07529183  energy(sigma->0) =     3462.07529183


--------------------------------------------------------------------------------------------------------




--------------------------------------- Iteration      1(   2)  ---------------------------------------


     EDDAV:  cpu time    8.9371: real time    9.0072
 BZINTS: Fermi energy:    2.661767;  391.000000 electrons
         Band energy:-0.632682E+03;  BLOECHL correction:   -0.012099
       DOS:  cpu time    0.0105: real time    0.0105
    --------------------------------------------
      LOOP:  cpu time    8.9475: real time    9.0176

 eigenvalue-minimisations  :  5040
 total energy-change (2. order) :-0.3148132E+04  (-0.3017008E+04)
 number of electron     391.0000120 magnetization 
 augmentation part      391.0000120 magnetization 

 Free energy of the ion-electron system (eV)
  ---------------------------------------------------
  alpha Z        PSCENC =       857.87305077
  Ewald energy   TEWEN  =    145905.55805417
  -Hartree energ DENC   =   -192566.99419677
  -exchange      EXHF   =         0.00000000
  -V(xc)+E(xc)   XCENC  =      1537.43726849
  PAW double counting   =     45960.58478726   -49708.89756145
  entropy T*S    EENTRO =         0.00000000
  eigenvalues    EBANDS =      -632.68177984
  atomic energy  EATOM  =     48961.06377618
  Solvation  Ediel_sol  =         0.00000000
  ---------------------------------------------------
  free energy    TOTEN  =       313.94339881 eV

  energy without entropy =      313.94339881  energy(sigma->0) =      313.94339881


--------------------------------------------------------------------------------------------------------




--------------------------------------- Iteration      1(   3)  ---------------------------------------


     EDDAV:  cpu time   10.3851: real time   10.4109
 BZINTS: Fermi energy:    0.128436;  391.000000 electrons
         Band energy:-0.105630E+04;  BLOECHL correction:   -0.019431
       DOS:  cpu time    0.0103: real time    0.0103
    --------------------------------------------
      LOOP:  cpu time   10.3954: real time   10.4212

 eigenvalue-minimisations  :  5348
 total energy-change (2. order) :-0.4236209E+03  (-0.3888794E+03)
 number of electron     391.0000120 magnetization 
 augmentation part      391.0000120 magnetization 

 Free energy of the ion-electron system (eV)
  ---------------------------------------------------
  alpha Z        PSCENC =       857.87305077
  Ewald energy   TEWEN  =    145905.55805417
  -Hartree energ DENC   =   -192566.99419677
  -exchange      EXHF   =         0.00000000
  -V(xc)+E(xc)   XCENC  =      1537.43726849
  PAW double counting   =     45960.58478726   -49708.89756145
  entropy T*S    EENTRO =         0.00000000
  eigenvalues    EBANDS =     -1056.30267731
  atomic energy  EATOM  =     48961.06377618
  Solvation  Ediel_sol  =         0.00000000
  ---------------------------------------------------
  free energy    TOTEN  =      -109.67749866 eV

  energy without entropy =     -109.67749866  energy(sigma->0) =     -109.67749866


--------------------------------------------------------------------------------------------------------




--------------------------------------- Iteration      1(   4)  ---------------------------------------


     EDDAV:  cpu time   10.5133: real time   10.5256
 BZINTS: Fermi energy:    0.057073;  391.000000 electrons
         Band energy:-0.107556E+04;  BLOECHL correction:   -0.019069
       DOS:  cpu time    0.0101: real time    0.0101
    --------------------------------------------
      LOOP:  cpu time   10.5234: real time   10.5358

 eigenvalue-minimisations  :  5600
 total energy-change (2. order) :-0.1926199E+02  (-0.1913231E+02)
 number of electron     391.0000120 magnetization 
 augmentation part      391.0000120 magnetization 

 Free energy of the ion-electron system (eV)
  ---------------------------------------------------
  alpha Z        PSCENC =       857.87305077
  Ewald energy   TEWEN  =    145905.55805417
  -Hartree energ DENC   =   -192566.99419677
  -exchange      EXHF   =         0.00000000
  -V(xc)+E(xc)   XCENC  =      1537.43726849
  PAW double counting   =     45960.58478726   -49708.89756145
  entropy T*S    EENTRO =         0.00000000
  eigenvalues    EBANDS =     -1075.56466870
  atomic energy  EATOM  =     48961.06377618
  Solvation  Ediel_sol  =         0.00000000
  ---------------------------------------------------
  free energy    TOTEN  =      -128.93949006 eV

  energy without entropy =     -128.93949006  energy(sigma->0) =     -128.93949006


--------------------------------------------------------------------------------------------------------




--------------------------------------- Iteration      1(   5)  ---------------------------------------


     EDDAV:  cpu time   10.8050: real time   10.8139
 BZINTS: Fermi energy:    0.055847;  391.000000 electrons
         Band energy:-0.107593E+04;  BLOECHL correction:   -0.019054
       DOS:  cpu time    0.0105: real time    0.0105
    --------------------------------------------
      LOOP:  cpu time   10.8155: real time   10.8244

 eigenvalue-minimisations  :  5684
 total energy-change (2. order) :-0.3699600E+00  (-0.3698920E+00)
 number of electron     391.0000120 magnetization 
 augmentation part      391.0000120 magnetization 

 Free energy of the ion-electron system (eV)
  ---------------------------------------------------
  alpha Z        PSCENC =       857.87305077
  Ewald energy   TEWEN  =    145905.55805417
  -Hartree energ DENC   =   -192566.99419677
  -exchange      EXHF   =         0.00000000
  -V(xc)+E(xc)   XCENC  =      1537.43726849
  PAW double counting   =     45960.58478726   -49708.89756145
  entropy T*S    EENTRO =         0.00000000
  eigenvalues    EBANDS =     -1075.93462866
  atomic energy  EATOM  =     48961.06377618
  Solvation  Ediel_sol  =         0.00000000
  ---------------------------------------------------
  free energy    TOTEN  =      -129.30945002 eV

  energy without entropy =     -129.30945002  energy(sigma->0) =     -129.30945002


--------------------------------------------------------------------------------------------------------




--------------------------------------- Iteration      1(   6)  ---------------------------------------


    EDDIAG:  cpu time    1.6202: real time    1.6255
  RMM-DIIS:  cpu time    5.2830: real time    5.2915
    ORTHCH:  cpu time    0.3073: real time    0.3073
 BZINTS: Fermi energy:    0.055808;  391.000000 electrons
         Band energy:-0.107594E+04;  BLOECHL correction:   -0.019053
       DOS:  cpu time    0.0107: real time    0.0107
    --------------------------------------------
      LOOP:  cpu time    7.2213: real time    7.2350

 eigenvalue-minimisations  :  5374
 total energy-change (2. order) :-0.1034194E-01  (-0.1034327E-01)
 number of electron     391.0000120 magnetization 
 augmentation part      391.0000120 magnetization 

 Free energy of the ion-electron system (eV)
  ---------------------------------------------------
  alpha Z        PSCENC =       857.87305077
  Ewald energy   TEWEN  =    145905.55805417
  -Hartree energ DENC   =   -192566.99419677
  -exchange      EXHF   =         0.00000000
  -V(xc)+E(xc)   XCENC  =      1537.43726849
  PAW double counting   =     45960.58478726   -49708.89756145
  entropy T*S    EENTRO =         0.00000000
  eigenvalues    EBANDS =     -1075.94497060
  atomic energy  EATOM  =     48961.06377618
  Solvation  Ediel_sol  =         0.00000000
  ---------------------------------------------------
  free energy    TOTEN  =      -129.31979195 eV

  energy without entropy =     -129.31979195  energy(sigma->0) =     -129.31979195


--------------------------------------------------------------------------------------------------------




--------------------------------------- Iteration      1(   7)  ---------------------------------------


    EDDIAG:  cpu time    1.6201: real time    1.6220
  RMM-DIIS:  cpu time    5.3303: real time    5.3325
    ORTHCH:  cpu time    0.2179: real time    0.2179
 BZINTS: Fermi energy:    0.055793;  391.000000 electrons
         Band energy:-0.107595E+04;  BLOECHL correction:   -0.019053
       DOS:  cpu time    0.0100: real time    0.0100
    --------------------------------------------
      LOOP:  cpu time    7.1783: real time    7.1824

 eigenvalue-minimisations  :  7834
 total energy-change (2. order) :-0.4453402E-02  (-0.4433575E-02)
 number of electron     391.0000120 magnetization 
 augmentation part      391.0000120 magnetization 

 Free energy of the ion-electron system (eV)
  ---------------------------------------------------
  alpha Z        PSCENC =       857.87305077
  Ewald energy   TEWEN  =    145905.55805417
  -Hartree energ DENC   =   -192566.99419677
  -exchange      EXHF   =         0.00000000
  -V(xc)+E(xc)   XCENC  =      1537.43726849
  PAW double counting   =     45960.58478726   -49708.89756145
  entropy T*S    EENTRO =         0.00000000
  eigenvalues    EBANDS =     -1075.94942400
  atomic energy  EATOM  =     48961.06377618
  Solvation  Ediel_sol  =         0.00000000
  ---------------------------------------------------
  free energy    TOTEN  =      -129.32424535 eV

  energy without entropy =     -129.32424535  energy(sigma->0) =     -129.32424535


--------------------------------------------------------------------------------------------------------




--------------------------------------- Iteration      1(   8)  ---------------------------------------


    EDDIAG:  cpu time    1.1110: real time    1.1111
  RMM-DIIS:  cpu time    3.8071: real time    3.8153
    ORTHCH:  cpu time    0.3023: real time    0.3023
 BZINTS: Fermi energy:    0.055793;  391.000000 electrons
         Band energy:-0.107595E+04;  BLOECHL correction:   -0.019053
       DOS:  cpu time    0.0108: real time    0.0108
    --------------------------------------------
      LOOP:  cpu time    5.2312: real time    5.2395

 eigenvalue-minimisations  :  5821
 total energy-change (2. order) :-0.1737466E-03  (-0.1795521E-03)
 number of electron     391.0000120 magnetization 
 augmentation part      391.0000120 magnetization 

 Free energy of the ion-electron system (eV)
  ---------------------------------------------------
  alpha Z        PSCENC =       857.87305077
  Ewald energy   TEWEN  =    145905.55805417
  -Hartree energ DENC   =   -192566.99419677
  -exchange      EXHF   =         0.00000000
  -V(xc)+E(xc)   XCENC  =      1537.43726849
  PAW double counting   =     45960.58478726   -49708.89756145
  entropy T*S    EENTRO =         0.00000000
  eigenvalues    EBANDS =     -1075.94959775
  atomic energy  EATOM  =     48961.06377618
  Solvation  Ediel_sol  =         0.00000000
  ---------------------------------------------------
  free energy    TOTEN  =      -129.32441910 eV

  energy without entropy =     -129.32441910  energy(sigma->0) =     -129.32441910


--------------------------------------------------------------------------------------------------------




--------------------------------------- Iteration      1(   9)  ---------------------------------------


    EDDIAG:  cpu time    1.5535: real time    1.5537
  RMM-DIIS:  cpu time    6.7865: real time    6.7900
    ORTHCH:  cpu time    0.3016: real time    0.3016
 BZINTS: Fermi energy:    0.055793;  391.000000 electrons
         Band energy:-0.107595E+04;  BLOECHL correction:   -0.019053
       DOS:  cpu time    0.0111: real time    0.0111
    --------------------------------------------
      LOOP:  cpu time    8.6528: real time    8.6564

 eigenvalue-minimisations  :  7100
 total energy-change (2. order) :-0.5816921E-04  (-0.5789235E-04)
 number of electron     391.0000120 magnetization 
 augmentation part      391.0000120 magnetization 

 Free energy of the ion-electron system (eV)
  ---------------------------------------------------
  alpha Z        PSCENC =       857.87305077
  Ewald energy   TEWEN  =    145905.55805417
  -Hartree energ DENC   =   -192566.99419677
  -exchange      EXHF   =         0.00000000
  -V(xc)+E(xc)   XCENC  =      1537.43726849
  PAW double counting   =     45960.58478726   -49708.89756145
  entropy T*S    EENTRO =         0.00000000
  eigenvalues    EBANDS =     -1075.94965592
  atomic energy  EATOM  =     48961.06377618
  Solvation  Ediel_sol  =         0.00000000
  ---------------------------------------------------
  free energy    TOTEN  =      -129.32447727 eV

  energy without entropy =     -129.32447727  energy(sigma->0) =     -129.32447727


--------------------------------------------------------------------------------------------------------




--------------------------------------- Iteration      1(  10)  ---------------------------------------


    EDDIAG:  cpu time    1.5353: real time    1.5372
  RMM-DIIS:  cpu time    4.1855: real time    4.1917
    ORTHCH:  cpu time    0.2955: real time    0.2955
 BZINTS: Fermi energy:    0.055793;  391.000000 electrons
         Band energy:-0.107595E+04;  BLOECHL correction:   -0.019053
       DOS:  cpu time    0.0110: real time    0.0110
    --------------------------------------------
      LOOP:  cpu time    6.0273: real time    6.0354

 eigenvalue-minimisations  :  4085
 total energy-change (2. order) :-0.3772875E-05  (-0.3751144E-05)
 number of electron     391.0000120 magnetization 
 augmentation part      391.0000120 magnetization 

 Free energy of the ion-electron system (eV)
  ---------------------------------------------------
  alpha Z        PSCENC =       857.87305077
  Ewald energy   TEWEN  =    145905.55805417
  -Hartree energ DENC   =   -192566.99419677
  -exchange      EXHF   =         0.00000000
  -V(xc)+E(xc)   XCENC  =      1537.43726849
  PAW double counting   =     45960.58478726   -49708.89756145
  entropy T*S    EENTRO =         0.00000000
  eigenvalues    EBANDS =     -1075.94965969
  atomic energy  EATOM  =     48961.06377618
  Solvation  Ediel_sol  =         0.00000000
  ---------------------------------------------------
  free energy    TOTEN  =      -129.32448104 eV

  energy without entropy =     -129.32448104  energy(sigma->0) =     -129.32448104


--------------------------------------------------------------------------------------------------------




 average (electrostatic) potential at core
  the test charge radii are     0.9430  1.1394
  (the norm of the test charge is              1.0000)
       1 -70.9174       2 -70.9095       3 -70.9095       4 -70.9095       5 -70.9275
       6 -70.9092       7 -70.9095       8 -70.9092       9 -70.9127      10 -71.1978
      11 -71.1596      12 -71.1978      13 -71.1596      14 -71.1593      15 -71.1741
      16 -71.1978      17 -71.1741      18 -71.1744      19 -71.1635      20 -71.3034
      21 -71.3037      22 -71.1435      23 -71.3037      24 -71.1433      25 -71.1639
      26 -71.1635      27 -71.1435      28 -70.9432      29 -71.0194      30 -71.0196
      31 -71.0194      32 -71.0194      33 -71.0196      34 -71.0194      35 -70.9356
      36 -48.8300
 
 
 
 E-fermi :   0.0558     XC(G=0):  -5.9253     alpha+bet : -5.2551

 Fermi energy:         0.0557931260

 k-point     1 :       0.0000    0.0000    0.0000
  band No.  band energies     occupation 
      1      -8.7370      2.00000
      2      -7.4260      2.00000
      3      -5.8056      2.00000
      4      -5.7557      2.00000
      5      -5.7556      2.00000
      6      -5.7375      2.00000
      7      -5.7324      2.00000
      8      -5.7323      2.00000
      9      -5.6883      2.00000
     10      -4.9875      2.00000
     11      -4.9752      2.00000
     12      -4.9752      2.00000
     13      -4.9737      2.00000
     14      -4.9720      2.00000
     15      -4.9720      2.00000
     16      -4.8654      2.00000
     17      -4.2977      2.00000
     18      -4.2977      2.00000
     19      -4.2846      2.00000
     20      -4.2846      2.00000
     21      -4.2844      2.00000
     22      -4.2231      2.00000
     23      -4.0144      2.00000
     24      -3.9997      2.00000
     25      -3.9997      2.00000
     26      -3.9785      2.00000
     27      -3.9785      2.00000
     28      -3.9716      2.00000
     29      -3.8258      2.00000
     30      -3.8257      2.00000
     31      -3.8158      2.00000
     32      -3.8158      2.00000
     33      -3.8097      2.00000
     34      -3.8075      2.00000
     35      -3.7784      2.00000
     36      -3.7675      2.00000
     37      -3.7675      2.00000
     38      -3.7577      2.00000
     39      -3.7577      2.00000
     40      -3.7511      2.00000
     41      -3.6893      2.00000
     42      -3.6892      2.00000
     43      -3.6650      2.00000
     44      -3.6650      2.00000
     45      -3.5588      2.00000
     46      -3.5544      2.00000
     47      -3.5028      2.00000
     48      -3.4791      2.00000
     49      -3.4767      2.00000
     50      -3.4767      2.00000
     51      -3.4665      2.00000
     52      -3.4665      2.00000
     53      -3.4244      2.00000
     54      -3.4229      2.00000
     55      -3.1516      2.00000
     56      -3.1340      2.00000
     57      -3.1340      2.00000
     58      -3.1337      2.00000
     59      -3.1139      2.00000
     60      -3.1139      2.00000
     61      -3.0378      2.00000
     62      -3.0345      2.00000
     63      -3.0344      2.00000
     64      -3.0177      2.00000
     65      -3.0177      2.00000
     66      -2.9999      2.00000
     67      -2.9999      2.00000
     68      -2.9777      2.00000
     69      -2.9777      2.00000
     70      -2.9644      2.00000
     71      -2.9612      2.00000
     72      -2.9003      2.00000
     73      -2.8880      2.00000
     74      -2.8880      2.00000
     75      -2.8363      2.00000
     76      -2.8363      2.00000
     77      -2.7949      2.00000
     78      -2.7949      2.00000
     79      -2.7906      2.00000
     80      -2.7772      2.00000
     81      -2.7771      2.00000
     82      -2.7631      2.00000
     83      -2.7219      2.00000
     84      -2.7219      2.00000
     85      -2.7203      2.00000
     86      -2.6994      2.00000
     87      -2.6994      2.00000
     88      -2.6790      2.00000
     89      -2.6789      2.00000
     90      -2.6722      2.00000
     91      -2.6565      2.00000
     92      -2.6565      2.00000
     93      -2.6310      2.00000
     94      -2.6310      2.00000
     95      -2.6143      2.00000
     96      -2.5990      2.00000
     97      -2.5990      2.00000
     98      -2.5699      2.00000
     99      -2.5699      2.00000
    100      -2.5538      2.00000
    101      -2.5460      2.00000
    102      -2.5460      2.00000
    103      -2.5114      2.00000
    104      -2.5114      2.00000
    105      -2.4960      2.00000
    106      -2.4693      2.00000
    107      -2.4693      2.00000
    108      -2.3089      2.00000
    109      -2.3009      2.00000
    110      -2.3008      2.00000
    111      -2.3008      2.00000
    112      -2.2840      2.00000
    113      -2.2840      2.00000
    114      -2.2739      2.00000
    115      -2.2561      2.00000
    116      -2.2561      2.00000
    117      -2.2489      2.00000
    118      -2.2389      2.00000
    119      -2.2389      2.00000
    120      -2.2384      2.00000
    121      -2.2187      2.00000
    122      -2.1044      2.00000
    123      -2.1044      2.00000
    124      -2.0975      2.00000
    125      -2.0974      2.00000
    126      -2.0811      2.00000
    127      -2.0774      2.00000
    128      -2.0774      2.00000
    129      -2.0427      2.00000
    130      -2.0427      2.00000
    131      -2.0380      2.00000
    132      -2.0380      2.00000
    133      -1.9972      2.00000
    134      -1.9955      2.00000
    135      -1.9710      2.00000
    136      -1.9710      2.00000
    137      -1.9657      2.00000
    138      -1.9566      2.00000
    139      -1.9565      2.00000
    140      -1.9042      2.00000
    141      -1.9042      2.00000
    142      -1.8546      2.00000
    143      -1.8545      2.00000
    144      -1.8377      2.00000
    145      -1.8369      2.00000
    146      -1.8305      2.00000
    147      -1.8304      2.00000
    148      -1.8161      2.00000
    149      -1.8161      2.00000
    150      -1.8073      2.00000
    151      -1.7892      2.00000
    152      -1.7892      2.00000
    153      -1.7717      2.00000
    154      -1.7695      2.00000
    155      -1.7284      2.00000
    156      -1.7185      2.00000
    157      -1.7096      2.00000
    158      -1.7096      2.00000
    159      -1.6952      2.00000
    160      -1.6952      2.00000
    161      -1.6848      2.00000
    162      -1.6816      2.00000
    163      -1.6795      2.00000
    164      -1.6795      2.00000
    165      -1.6761      2.00000
    166      -1.6666      2.00000
    167      -1.6666      2.00000
    168      -1.6537      2.00000
    169      -1.6536      2.00000
    170      -1.6304      2.00000
    171      -1.6304      2.00000
    172      -1.6229      2.00000
    173      -1.6147      2.00000
    174      -1.6129      2.00000
    175      -1.6129      2.00000
    176      -1.6103      2.00000
    177      -1.6085      2.00000
    178      -1.6084      2.00000
    179      -1.6028      2.00000
    180      -1.5972      2.00000
    181      -1.5972      2.00000
    182      -1.5936      2.00000
    183      -1.5471      2.00000
    184      -1.5470      2.00000
    185      -1.5005      2.00000
    186      -1.5005      2.00000
    187      -1.4982      2.00000
    188      -1.4851      2.00000
    189      -1.4851      2.00000
    190      -1.4821      2.00000
    191      -1.0854      2.00000
    192      -0.5200      2.00000
    193      -0.3897      2.00000
    194      -0.3897      2.00000
    195      -0.3332      2.00000
    196      -0.3332      2.00000
    197      -0.2701      2.00000
    198      -0.0730      2.36490
    199       0.0982      0.00000
    200       0.0982      0.00000
    201       0.2131      0.00000
    202       0.2132      0.00000
    203       0.4514      0.00000
    204       2.0524      0.00000
    205       2.0593      0.00000
    206       2.0593      0.00000
    207       2.2506      0.00000
    208       2.2866      0.00000
    209       2.2867      0.00000
    210       3.4544      0.00000
    211       3.5520      0.00000
    212       3.7246      0.00000
    213       3.7246      0.00000
    214       3.8117      0.00000
    215       3.8117      0.00000
    216       4.3716      0.00000
    217       4.3860      0.00000
    218       4.5374      0.00000
    219       4.5375      0.00000
    220       4.5588      0.00000
    221       4.5589      0.00000
    222       4.5647      0.00000
    223       4.6387      0.00000
    224       4.6388      0.00000
    225       4.6772      0.00000
    226       4.7969      0.00000
    227       4.7970      0.00000
    228       5.2173      0.00000
    229       5.4242      0.00000
    230       5.6829      0.00000
    231       6.0771      0.00000
    232       6.3570      0.00000
    233       6.3570      0.00000
    234       6.4976      0.00000
    235       6.4976      0.00000
    236       6.8633      0.00000
    237       6.8633      0.00000
    238       6.8865      0.00000
    239       6.8896      0.00000
    240       6.8896      0.00000
    241       6.9442      0.00000
    242       7.4567      0.00000
    243       7.4777      0.00000
    244       7.4807      0.00000
    245       7.4936      0.00000
    246       7.5028      0.00000
    247       7.5179      0.00000
    248       7.5248      0.00000
    249       7.7314      0.00000
    250       7.8303      0.00000
    251       7.8335      0.00000
    252       7.8387      0.00000

 k-point     2 :       0.1250   -0.0000    0.0000
  band No.  band energies     occupation 
      1      -8.6818      2.00000
      2      -7.3729      2.00000
      3      -6.3050      2.00000
      4      -5.9891      2.00000
      5      -5.9764      2.00000
      6      -5.7369      2.00000
      7      -5.4532      2.00000
      8      -5.4414      2.00000
      9      -5.3064      2.00000
     10      -5.2511      2.00000
     11      -5.1048      2.00000
     12      -5.0680      2.00000
     13      -4.9408      2.00000
     14      -4.8202      2.00000
     15      -4.7930      2.00000
     16      -4.7324      2.00000
     17      -4.3346      2.00000
     18      -4.2901      2.00000
     19      -4.2806      2.00000
     20      -4.2680      2.00000
     21      -4.2637      2.00000
     22      -4.2133      2.00000
     23      -4.0572      2.00000
     24      -4.0129      2.00000
     25      -4.0075      2.00000
     26      -3.9592      2.00000
     27      -3.9496      2.00000
     28      -3.9433      2.00000
     29      -3.9312      2.00000
     30      -3.9254      2.00000
     31      -3.8920      2.00000
     32      -3.8862      2.00000
     33      -3.8461      2.00000
     34      -3.7927      2.00000
     35      -3.7902      2.00000
     36      -3.7801      2.00000
     37      -3.7795      2.00000
     38      -3.7067      2.00000
     39      -3.7062      2.00000
     40      -3.6892      2.00000
     41      -3.6791      2.00000
     42      -3.6777      2.00000
     43      -3.6105      2.00000
     44      -3.6091      2.00000
     45      -3.5698      2.00000
     46      -3.5650      2.00000
     47      -3.5596      2.00000
     48      -3.5241      2.00000
     49      -3.5102      2.00000
     50      -3.4375      2.00000
     51      -3.4240      2.00000
     52      -3.4028      2.00000
     53      -3.4019      2.00000
     54      -3.3844      2.00000
     55      -3.2202      2.00000
     56      -3.1971      2.00000
     57      -3.1917      2.00000
     58      -3.1381      2.00000
     59      -3.1230      2.00000
     60      -3.1093      2.00000
     61      -3.0628      2.00000
     62      -3.0594      2.00000
     63      -3.0367      2.00000
     64      -3.0292      2.00000
     65      -3.0278      2.00000
     66      -3.0080      2.00000
     67      -2.9976      2.00000
     68      -2.9852      2.00000
     69      -2.9603      2.00000
     70      -2.9589      2.00000
     71      -2.9418      2.00000
     72      -2.9056      2.00000
     73      -2.8933      2.00000
     74      -2.8702      2.00000
     75      -2.8226      2.00000
     76      -2.8223      2.00000
     77      -2.8111      2.00000
     78      -2.8062      2.00000
     79      -2.7938      2.00000
     80      -2.7687      2.00000
     81      -2.7658      2.00000
     82      -2.7465      2.00000
     83      -2.7419      2.00000
     84      -2.7297      2.00000
     85      -2.7248      2.00000
     86      -2.7075      2.00000
     87      -2.7068      2.00000
     88      -2.6937      2.00000
     89      -2.6826      2.00000
     90      -2.6586      2.00000
     91      -2.6547      2.00000
     92      -2.6472      2.00000
     93      -2.6404      2.00000
     94      -2.6294      2.00000
     95      -2.6211      2.00000
     96      -2.5753      2.00000
     97      -2.5675      2.00000
     98      -2.5670      2.00000
     99      -2.5635      2.00000
    100      -2.5633      2.00000
    101      -2.5571      2.00000
    102      -2.5536      2.00000
    103      -2.5226      2.00000
    104      -2.5170      2.00000
    105      -2.4872      2.00000
    106      -2.4828      2.00000
    107      -2.4573      2.00000
    108      -2.4483      2.00000
    109      -2.4283      2.00000
    110      -2.4028      2.00000
    111      -2.3705      2.00000
    112      -2.3345      2.00000
    113      -2.3194      2.00000
    114      -2.2998      2.00000
    115      -2.2870      2.00000
    116      -2.2690      2.00000
    117      -2.2651      2.00000
    118      -2.2535      2.00000
    119      -2.2507      2.00000
    120      -2.2465      2.00000
    121      -2.2212      2.00000
    122      -2.2128      2.00000
    123      -2.1836      2.00000
    124      -2.1046      2.00000
    125      -2.1007      2.00000
    126      -2.0942      2.00000
    127      -2.0591      2.00000
    128      -2.0478      2.00000
    129      -2.0470      2.00000
    130      -2.0380      2.00000
    131      -2.0267      2.00000
    132      -2.0224      2.00000
    133      -2.0190      2.00000
    134      -2.0117      2.00000
    135      -2.0072      2.00000
    136      -1.9692      2.00000
    137      -1.9664      2.00000
    138      -1.9459      2.00000
    139      -1.9407      2.00000
    140      -1.9304      2.00000
    141      -1.9197      2.00000
    142      -1.9160      2.00000
    143      -1.8732      2.00000
    144      -1.8531      2.00000
    145      -1.8384      2.00000
    146      -1.8224      2.00000
    147      -1.8179      2.00000
    148      -1.8011      2.00000
    149      -1.8006      2.00000
    150      -1.7869      2.00000
    151      -1.7843      2.00000
    152      -1.7667      2.00000
    153      -1.7493      2.00000
    154      -1.7389      2.00000
    155      -1.7350      2.00000
    156      -1.7234      2.00000
    157      -1.7225      2.00000
    158      -1.7066      2.00000
    159      -1.7040      2.00000
    160      -1.6961      2.00000
    161      -1.6841      2.00000
    162      -1.6820      2.00000
    163      -1.6745      2.00000
    164      -1.6695      2.00000
    165      -1.6654      2.00000
    166      -1.6600      2.00000
    167      -1.6548      2.00000
    168      -1.6516      2.00000
    169      -1.6374      2.00000
    170      -1.6197      2.00000
    171      -1.6161      2.00000
    172      -1.6097      2.00000
    173      -1.6037      2.00000
    174      -1.6006      2.00000
    175      -1.5926      2.00000
    176      -1.5692      2.00000
    177      -1.5648      2.00000
    178      -1.5499      2.00000
    179      -1.5349      2.00000
    180      -1.5283      2.00000
    181      -1.5153      2.00000
    182      -1.5148      2.00000
    183      -1.5071      2.00000
    184      -1.5016      2.00000
    185      -1.4721      2.00000
    186      -1.4720      2.00000
    187      -1.4373      2.00000
    188      -1.3449      2.00000
    189      -1.3261      2.00000
    190      -1.2384      2.00000
    191      -0.9747      2.00000
    192      -0.7514      2.00000
    193      -0.5520      2.00000
    194      -0.5114      2.00000
    195      -0.1871      2.00000
    196      -0.1776      2.00000
    197      -0.0313      2.00000
    198       0.1029      0.14224
    199       0.1310      0.00000
    200       0.1912      0.00000
    201       0.2853      0.00000
    202       0.2991      0.00000
    203       0.5673      0.00000
    204       1.5766      0.00000
    205       1.9199      0.00000
    206       1.9317      0.00000
    207       2.4773      0.00000
    208       2.5010      0.00000
    209       2.5702      0.00000
    210       2.5910      0.00000
    211       2.7529      0.00000
    212       3.4377      0.00000
    213       3.4387      0.00000
    214       3.7916      0.00000
    215       3.8767      0.00000
    216       3.9174      0.00000
    217       4.2422      0.00000
    218       4.2575      0.00000
    219       4.4173      0.00000
    220       4.4379      0.00000
    221       4.6370      0.00000
    222       4.6933      0.00000
    223       4.9674      0.00000
    224       4.9814      0.00000
    225       5.0607      0.00000
    226       5.0677      0.00000
    227       5.3121      0.00000
    228       5.5328      0.00000
    229       5.6379      0.00000
    230       5.7353      0.00000
    231       6.0003      0.00000
    232       6.1186      0.00000
    233       6.2609      0.00000
    234       6.3164      0.00000
    235       6.4921      0.00000
    236       6.5189      0.00000
    237       6.5195      0.00000
    238       6.7412      0.00000
    239       6.7961      0.00000
    240       6.8026      0.00000
    241       6.8573      0.00000
    242       6.9785      0.00000
    243       7.0217      0.00000
    244       7.3823      0.00000
    245       7.3847      0.00000
    246       7.4043      0.00000
    247       7.4314      0.00000
    248       7.9001      0.00000
    249       8.0810      0.00000
    250       8.1228      0.00000
    251       8.1543      0.00000
    252       8.1833      0.00000

 k-point     3 :       0.2500   -0.0000    0.0000
  band No.  band energies     occupation 
      1      -8.5171      2.00000
      2      -7.2157      2.00000
      3      -6.8798      2.00000
      4      -6.1733      2.00000
      5      -6.1591      2.00000
      6      -5.7436      2.00000
      7      -5.5893      2.00000
      8      -5.2053      2.00000
      9      -5.1743      2.00000
     10      -5.1369      2.00000
     11      -5.1160      2.00000
     12      -4.9190      2.00000
     13      -4.8275      2.00000
     14      -4.6546      2.00000
     15      -4.6426      2.00000
     16      -4.6266      2.00000
     17      -4.4776      2.00000
     18      -4.2644      2.00000
     19      -4.2560      2.00000
     20      -4.2296      2.00000
     21      -4.2089      2.00000
     22      -4.1759      2.00000
     23      -4.1149      2.00000
     24      -4.0745      2.00000
     25      -4.0710      2.00000
     26      -4.0367      2.00000
     27      -4.0352      2.00000
     28      -4.0217      2.00000
     29      -4.0005      2.00000
     30      -3.9970      2.00000
     31      -3.9272      2.00000
     32      -3.8839      2.00000
     33      -3.8810      2.00000
     34      -3.8315      2.00000
     35      -3.8267      2.00000
     36      -3.7717      2.00000
     37      -3.7670      2.00000
     38      -3.7408      2.00000
     39      -3.7389      2.00000
     40      -3.6324      2.00000
     41      -3.6176      2.00000
     42      -3.6164      2.00000
     43      -3.5868      2.00000
     44      -3.5864      2.00000
     45      -3.5753      2.00000
     46      -3.5431      2.00000
     47      -3.5295      2.00000
     48      -3.4947      2.00000
     49      -3.4896      2.00000
     50      -3.4096      2.00000
[...]
  0.000   0.000   0.000   2.000   0.000   0.000   0.000   0.000   0.000   0.000   0.000   0.000   0.000   0.000   0.000   0.000
  0.000   0.000   0.000   0.000   2.000   0.000   0.000   0.000   0.000   0.000   0.000   0.000   0.000   0.000   0.000   0.000
  0.000   0.000   0.000   0.000   0.000   0.000   0.000   0.000   0.000   0.000   0.000   0.000   0.000   0.000   0.000   0.000
  0.000   0.000   0.000   0.000   0.000   0.000   0.000   0.000   0.000   0.000   0.000   0.000   0.000   0.000   0.000   0.000
  0.000   0.000   0.000   0.000   0.000   0.000   0.000   0.000   0.000   0.000   0.000   0.000   0.000   0.000   0.000   0.000
  0.000   0.000   0.000   0.000   0.000   0.000   0.000   0.000   0.000   0.000   0.000   0.000   0.000   0.000   0.000   0.000
  0.000   0.000   0.000   0.000   0.000   0.000   0.000   0.000   0.000   0.000   0.000   0.000   0.000   0.000   0.000   0.000
  0.000   0.000   0.000   0.000   0.000   0.000   0.000   0.000   0.000   0.000   1.000   0.000   0.000   0.000   0.000   0.000
  0.000   0.000   0.000   0.000   0.000   0.000   0.000   0.000   0.000   0.000   0.000   0.000   0.000   0.000   0.000   0.000
  0.000   0.000   0.000   0.000   0.000   0.000   0.000   0.000   0.000   0.000   0.000   0.000   0.000   0.000   0.000   0.000
  0.000   0.000   0.000   0.000   0.000   0.000   0.000   0.000   0.000   0.000   0.000   0.000   0.000   0.000   0.000   0.000
  0.000   0.000   0.000   0.000   0.000   0.000   0.000   0.000   0.000   0.000   0.000   0.000   0.000   0.000   0.000   0.000
  0.000   0.000   0.000   0.000   0.000   0.000   0.000   0.000   0.000   0.000   0.000   0.000   0.000   0.000   0.000   0.000
  0.000   0.000   0.000   0.000   0.000   0.000   0.000   0.000   0.000   0.000   0.000   0.000   0.000   0.000   0.000   0.000
  0.000   0.000   0.000   0.000   0.000   0.000   0.000   0.000   0.000   0.000   0.000   0.000   0.000   0.000   0.000   0.000


------------------------ aborting loop because EDIFF is reached ----------------------------------------





 total charge

# of ion       s       p       d       tot
------------------------------------------
    1        0.450   0.284   9.188   9.921
    2        0.448   0.286   9.186   9.919
    3        0.448   0.286   9.186   9.919
    4        0.448   0.286   9.186   9.919
    5        0.448   0.286   9.181   9.915
    6        0.448   0.286   9.186   9.919
    7        0.448   0.286   9.186   9.919
    8        0.448   0.286   9.186   9.919
    9        0.448   0.282   9.189   9.920
   10        0.444   0.372   9.175   9.990
   11        0.441   0.366   9.185   9.992
   12        0.444   0.372   9.175   9.990
   13        0.441   0.366   9.185   9.992
   14        0.441   0.366   9.185   9.992
   15        0.440   0.369   9.178   9.987
   16        0.444   0.372   9.175   9.990
   17        0.440   0.369   9.178   9.987
   18        0.440   0.369   9.178   9.987
   19        0.441   0.369   9.180   9.990
   20        0.461   0.397   9.158  10.016
   21        0.461   0.397   9.158  10.016
   22        0.433   0.373   9.181   9.987
   23        0.461   0.397   9.158  10.016
   24        0.433   0.373   9.181   9.987
   25        0.441   0.369   9.180   9.990
   26        0.441   0.369   9.180   9.990
   27        0.433   0.373   9.181   9.987
   28        0.446   0.286   9.181   9.912
   29        0.466   0.302   9.166   9.934
   30        0.466   0.302   9.166   9.934
   31        0.466   0.302   9.166   9.934
   32        0.466   0.302   9.166   9.934
   33        0.466   0.302   9.166   9.934
   34        0.466   0.302   9.166   9.934
   35        0.439   0.288   9.182   9.910
   36        0.454   0.394   4.291   5.138
--------------------------------------------------
tot         16.146  12.086 325.495 353.727
 
    CHARGE:  cpu time    0.3371: real time    0.3393
    FORLOC:  cpu time    0.0069: real time    0.0069
    FORNL :  cpu time    1.9194: real time    1.9196
    STRESS:  cpu time    5.6613: real time    5.6641
    FORCOR:  cpu time    0.0321: real time    0.0321
    FORHAR:  cpu time    0.0129: real time    0.0130
    OFIELD:  cpu time    0.0002: real time    0.0002

  FORCE on cell =-STRESS in cart. coord.  units (eV):
  Direction    XX          YY          ZZ          XY          YZ          ZX
  --------------------------------------------------------------------------------------
  Alpha Z   857.87305   857.87305   857.87305
  Ewald  171556.03500171556.03464************     0.00036     0.00011     0.00015
  Hartree184398.12188184398.12189************     0.00003     0.00005     0.00006
  E(xc)   -2271.61943 -2271.61895 -2276.29633    -0.00042    -0.00004    -0.00006
  Local  ************************369062.49894     0.01846    -0.00056    -0.00088
  n-local  -770.69868  -756.32515  -777.50713     7.28462    -0.00399     0.16815
  augment  3335.50747  3335.52758  3357.60544    -0.01742     0.00025     0.00042
  Kinetic  3170.56818  3174.96985  3205.36766     3.24053     1.29091    -1.06761
  Fock        0.00000     0.00000     0.00000     0.00000     0.00000     0.00000
  -------------------------------------------------------------------------------------
  Total      -8.94778    -8.94778    -0.49058     0.00000    -0.00000    -0.00000
  in kB     -13.12850   -13.12850    -0.71980     0.00000    -0.00000    -0.00000
  external pressure =       -8.99 kB  Pullay stress =        0.00 kB


 VOLUME and BASIS-vectors are now :
 -----------------------------------------------------------------------------
  energy-cutoff  :      500.00
  volume of cell :     1091.97
      direct lattice vectors                 reciprocal lattice vectors
     7.696786404  0.000000000  0.000000000     0.129924354 -0.075011849  0.000000000
     3.848392758  6.665612809  0.000000000     0.000000000  0.150023716  0.000000000
     0.000000000  0.000000000 21.284399033     0.000000000  0.000000000  0.046982769

  length of vectors
     7.696786404  7.696786404 21.284399033     0.150023716  0.150023716  0.046982769


 FORCES acting on ions
    electron-ion (+dipol)            ewald-force                    non-local-force                 convergence-correction
 -----------------------------------------------------------------------------------------------
   -.416E-04 0.138E-06 0.345E+04   0.581E-04 -.433E-05 -.344E+04   -.398E-17 0.434E-17 -.244E+01   -.155E-03 -.568E-04 0.825E-01
   -.652E+00 -.393E+00 0.344E+04   0.365E+00 0.351E+00 -.344E+04   0.108E+00 0.101E+00 -.187E+01   0.174E+00 -.473E-01 -.190E-01
   0.652E+00 -.393E+00 0.344E+04   -.365E+00 0.351E+00 -.344E+04   -.108E+00 0.101E+00 -.187E+01   -.173E+00 -.448E-01 -.184E-01
   -.666E+00 -.368E+00 0.344E+04   0.486E+00 0.140E+00 -.344E+04   0.141E+00 0.433E-01 -.187E+01   0.460E-01 0.174E+00 -.190E-01
   -.620E-04 -.358E-05 0.344E+04   0.116E-03 -.101E-04 -.344E+04   0.200E-17 -.220E-17 -.154E+01   0.121E-01 0.739E-02 0.105E+00
   0.666E+00 -.368E+00 0.344E+04   -.486E+00 0.140E+00 -.344E+04   -.141E+00 0.433E-01 -.187E+01   -.476E-01 0.175E+00 -.179E-01
   -.143E-01 0.761E+00 0.344E+04   0.121E+00 -.491E+00 -.344E+04   0.330E-01 -.144E+00 -.187E+01   -.125E+00 -.128E+00 -.183E-01
   0.144E-01 0.761E+00 0.344E+04   -.122E+00 -.491E+00 -.344E+04   -.330E-01 -.144E+00 -.187E+01   0.129E+00 -.129E+00 -.180E-01
   -.144E-03 -.330E-04 0.345E+04   0.263E-03 0.205E-04 -.344E+04   0.718E-17 0.215E-17 -.217E+01   -.133E-01 -.686E-02 -.114E+00
   -.233E+01 -.134E+01 0.111E+04   0.275E+01 0.159E+01 -.111E+04   -.379E+00 -.219E+00 -.108E+01   -.385E-01 -.223E-01 -.323E-01
   -.906E-04 -.325E+01 0.110E+04   0.189E-03 0.298E+01 -.110E+04   -.147E-07 0.221E+00 -.200E+00   0.108E-01 0.155E-01 -.414E-01
   0.233E+01 -.134E+01 0.111E+04   -.275E+01 0.159E+01 -.111E+04   0.379E+00 -.219E+00 -.108E+01   0.380E-01 -.209E-01 -.348E-01
   -.282E+01 0.163E+01 0.110E+04   0.258E+01 -.149E+01 -.110E+04   0.191E+00 -.110E+00 -.200E+00   0.193E-01 0.241E-02 -.413E-01
   0.282E+01 0.163E+01 0.110E+04   -.258E+01 -.149E+01 -.110E+04   -.191E+00 -.110E+00 -.200E+00   0.443E-02 0.219E-02 -.429E-01
   -.142E-03 -.515E+00 0.111E+04   0.298E-03 0.183E+00 -.111E+04   -.982E-08 0.147E+00 -.953E+00   -.298E-02 0.167E+00 -.201E-01
   -.922E-04 0.269E+01 0.111E+04   0.186E-03 -.318E+01 -.111E+04   -.291E-07 0.437E+00 -.108E+01   -.891E-04 0.421E-01 -.348E-01
   -.446E+00 0.257E+00 0.111E+04   0.159E+00 -.914E-01 -.111E+04   0.128E+00 -.737E-01 -.953E+00   0.144E+00 -.861E-01 -.202E-01
   0.446E+00 0.257E+00 0.111E+04   -.159E+00 -.914E-01 -.111E+04   -.128E+00 -.737E-01 -.953E+00   -.143E+00 -.845E-01 -.212E-01
   -.635E-04 -.547E+01 -.123E+04   0.721E-04 0.535E+01 0.122E+04   -.906E-11 0.136E-03 0.797E+00   0.134E-01 0.126E+00 0.188E+00
   -.393E+02 -.227E+02 -.127E+04   0.405E+02 0.234E+02 0.127E+04   -.109E+01 -.628E+00 -.726E+00   -.188E+00 -.109E+00 0.316E-01
   0.393E+02 -.227E+02 -.127E+04   -.405E+02 0.234E+02 0.127E+04   0.109E+01 -.628E+00 -.726E+00   0.166E+00 -.106E+00 0.308E-01
   -.215E+02 0.124E+02 -.123E+04   0.212E+02 -.122E+02 0.123E+04   0.393E+00 -.227E+00 0.560E+00   -.150E+00 0.696E-01 0.841E-01
   -.835E-04 0.454E+02 -.127E+04   0.149E-03 -.468E+02 0.127E+04   -.836E-07 0.126E+01 -.726E+00   -.105E-01 0.195E+00 0.307E-01
   0.215E+02 0.124E+02 -.123E+04   -.212E+02 -.122E+02 0.123E+04   -.393E+00 -.227E+00 0.560E+00   0.129E+00 0.733E-01 0.841E-01
   0.474E+01 0.273E+01 -.123E+04   -.463E+01 -.267E+01 0.122E+04   -.118E-03 -.680E-04 0.797E+00   -.905E-01 -.522E-01 0.188E+00
   -.474E+01 0.273E+01 -.123E+04   0.463E+01 -.267E+01 0.122E+04   0.118E-03 -.680E-04 0.797E+00   0.116E+00 -.511E-01 0.188E+00
   -.123E-03 -.248E+02 -.123E+04   0.239E-03 0.245E+02 0.123E+04   -.302E-07 0.453E+00 0.560E+00   -.146E-01 -.165E+00 0.843E-01
   -.384E-04 0.149E-04 -.348E+04   0.434E-04 -.320E-04 0.348E+04   -.879E-17 0.641E-18 0.199E+01   0.871E-03 0.556E-03 0.383E-01
   -.381E+02 -.679E+02 -.349E+04   0.389E+02 0.692E+02 0.349E+04   -.822E+00 -.111E+01 0.119E+01   0.305E-01 -.138E+00 0.155E+00
   0.381E+02 -.679E+02 -.349E+04   -.389E+02 0.692E+02 0.349E+04   0.822E+00 -.111E+01 0.119E+01   -.309E-01 -.136E+00 0.157E+00
   -.779E+02 0.995E+00 -.349E+04   0.794E+02 -.938E+00 0.349E+04   -.138E+01 -.155E+00 0.119E+01   -.104E+00 0.953E-01 0.155E+00
   0.779E+02 0.995E+00 -.349E+04   -.794E+02 -.938E+00 0.349E+04   0.138E+01 -.155E+00 0.119E+01   0.104E+00 0.974E-01 0.157E+00
   -.398E+02 0.669E+02 -.349E+04   0.405E+02 -.683E+02 0.349E+04   -.554E+00 0.127E+01 0.119E+01   -.133E+00 0.413E-01 0.157E+00
   0.398E+02 0.669E+02 -.349E+04   -.405E+02 -.683E+02 0.349E+04   0.554E+00 0.127E+01 0.119E+01   0.137E+00 0.416E-01 0.157E+00
   -.121E-03 -.163E-04 -.349E+04   0.247E-03 0.357E-05 0.349E+04   0.101E-17 0.108E-17 0.264E+01   -.133E-01 -.686E-02 0.284E+00
   -.533E-04 -.632E-05 -.188E+04   0.773E-04 0.145E-04 0.187E+04   -.487E-17 0.497E-17 0.293E+01   0.987E-03 0.598E-03 0.173E+00
 -----------------------------------------------------------------------------------------------
   -.237E-03 0.129E-04 0.545E+01   0.185E-12 0.337E-12 -.114E-11   -.226E-15 0.450E-15 -.746E+01   -.532E-02 -.614E-02 0.202E+01
 
 
 POSITION                                       TOTAL-FORCE (eV/Angst)
 -----------------------------------------------------------------------------------
      0.00000      0.00000      5.37156         0.000000     -0.000000     -0.027905
      2.56560      0.00000      5.37156        -0.004772      0.012163      0.056054
      5.13119      0.00000      5.37156         0.004772      0.012163      0.056054
      1.28280      2.22187      5.37156         0.008147     -0.010214      0.056054
      3.84839      2.22187      5.37156        -0.000000     -0.000000      0.044185
      6.41399      2.22187      5.37156        -0.008147     -0.010214      0.056054
      2.56560      4.44374      5.37156         0.012919     -0.001948      0.056054
      5.13119      4.44374      5.37156        -0.012919     -0.001948      0.056054
      7.69679      4.44374      5.37156        -0.000000     -0.000000      0.024887
      1.28280      0.74062      7.46636         0.008014      0.004627     -0.076285
      3.84839      0.74062      7.46636         0.000000     -0.048852     -0.072195
      6.41399      0.74062      7.46636        -0.008014      0.004627     -0.076285
      2.56560      2.96249      7.46636        -0.042307      0.024426     -0.072195
      5.13119      2.96249      7.46636         0.042307      0.024426     -0.072195
      7.69679      2.96249      7.46636         0.000000     -0.017004     -0.029526
      3.84839      5.18437      7.46636         0.000000     -0.009254     -0.076285
      6.41399      5.18437      7.46636        -0.014726      0.008502     -0.029526
      8.97958      5.18437      7.46636         0.014726      0.008502     -0.029526
      7.69679      1.48113      9.55176         0.000000     -0.000763      0.002759
      2.56610      1.48154      9.54462        -0.000561     -0.000324      0.017726
      5.13069      1.48154      9.54462         0.000561     -0.000324      0.017726
      8.97635      3.70498      9.55922         0.005149     -0.002973     -0.007396
      3.84839      3.70254      9.54462        -0.000000      0.000648      0.017726
      6.41722      3.70498      9.55922        -0.005149     -0.002973     -0.007396
     10.26248      5.92505      9.55176         0.000661      0.000381      0.002759
      5.13109      5.92505      9.55176        -0.000661      0.000381      0.002759
      7.69679      5.92126      9.55922        -0.000000      0.005945     -0.007396
      0.00000      0.00000     11.63975         0.000000     -0.000000      0.009401
      2.57267      0.01383     11.65039        -0.003341     -0.000751      0.018359
      5.12411      0.01383     11.65039         0.003341     -0.000751      0.018359
      1.29831      2.22109     11.65039        -0.002321     -0.002518      0.018359
      6.39847      2.22109     11.65039         0.002321     -0.002518      0.018359
      2.57403      4.43070     11.65039         0.001021      0.003269      0.018359
      5.12275      4.43070     11.65039        -0.001021      0.003269      0.018359
      7.69679      4.44374     11.64501         0.000000     -0.000000      0.009104
      3.84839      2.22187     11.55740         0.000000     -0.000000     -0.011399
 -----------------------------------------------------------------------------------
    total drift:                               -0.005553     -0.006124      0.002999


--------------------------------------------------------------------------------------------------------



  FREE ENERGIE OF THE ION-ELECTRON SYSTEM (eV)
  ---------------------------------------------------
  free  energy   TOTEN  =      -129.32448104 eV

  energy  without entropy=     -129.32448104  energy(sigma->0) =     -129.32448104
 


--------------------------------------------------------------------------------------------------------


    POTLOK:  cpu time    0.0371: real time    0.0372


--------------------------------------------------------------------------------------------------------


 stress matrix after NEB project (eV)
     -8.94778      0.00000     -0.00000
      0.00000     -8.94778     -0.00000
     -0.00000     -0.00000     -0.49058
  FORCES: max atom, RMS     0.018676    0.010045
  FORCE total and by dimension    0.060271    0.018359
  Stress total and by dimension   12.663579    8.947781
     LOOP+:  cpu time   92.1560: real time   92.3749
 -----------------------------------------------------------------------------
|                                                                             |
|           W    W    AA    RRRRR   N    N  II  N    N   GGGG   !!!           |
|           W    W   A  A   R    R  NN   N  II  NN   N  G    G  !!!           |
|           W    W  A    A  R    R  N N  N  II  N N  N  G       !!!           |
|           W WW W  AAAAAA  RRRRR   N  N N  II  N  N N  G  GGG   !            |
|           WW  WW  A    A  R   R   N   NN  II  N   NN  G    G                |
|           W    W  A    A  R    R  N    N  II  N    N   GGGG   !!!           |
|                                                                             |
|     Tetrahedron method does not include variations of the Fermi             |
|     occupations, so forces and stress will be inaccurate. We suggest        |
|     using a different smearing scheme ISMEAR = 1 or 2 for metals in         |
|     relaxations.                                                            |
|                                                                             |
 -----------------------------------------------------------------------------

    4ORBIT:  cpu time    0.0000: real time    0.0000



 total charge

# of ion       s       p       d       tot
------------------------------------------
    1        0.450   0.284   9.188   9.921
    2        0.448   0.286   9.186   9.919
    3        0.448   0.286   9.186   9.919
    4        0.448   0.286   9.186   9.919
    5        0.448   0.286   9.181   9.915
    6        0.448   0.286   9.186   9.919
    7        0.448   0.286   9.186   9.919
    8        0.448   0.286   9.186   9.919
    9        0.448   0.282   9.189   9.920
   10        0.444   0.372   9.175   9.990
   11        0.441   0.366   9.185   9.992
   12        0.444   0.372   9.175   9.990
   13        0.441   0.366   9.185   9.992
   14        0.441   0.366   9.185   9.992
   15        0.440   0.369   9.178   9.987
   16        0.444   0.372   9.175   9.990
   17        0.440   0.369   9.178   9.987
   18        0.440   0.369   9.178   9.987
   19        0.441   0.369   9.180   9.990
   20        0.461   0.397   9.158  10.016
   21        0.461   0.397   9.158  10.016
   22        0.433   0.373   9.181   9.987
   23        0.461   0.397   9.158  10.016
   24        0.433   0.373   9.181   9.987
   25        0.441   0.369   9.180   9.990
   26        0.441   0.369   9.180   9.990
   27        0.433   0.373   9.181   9.987
   28        0.446   0.286   9.181   9.912
   29        0.466   0.302   9.166   9.934
   30        0.466   0.302   9.166   9.934
   31        0.466   0.302   9.166   9.934
   32        0.466   0.302   9.166   9.934
   33        0.466   0.302   9.166   9.934
   34        0.466   0.302   9.166   9.934
   35        0.439   0.288   9.182   9.910
   36        0.454   0.394   4.291   5.138
--------------------------------------------------
tot         16.146  12.086 325.495 353.727
 
 BZINTS: Fermi energy:    0.055793;  391.000000 electrons
         Band energy:-0.107595E+04;  BLOECHL correction:   -0.019053

 total amount of memory used by VASP MPI-rank0   103826. kBytes
=======================================================================

   base      :      30000. kBytes
   nonlr-proj:      17444. kBytes
   fftplans  :       2916. kBytes
   grid      :      11902. kBytes
   one-center:        559. kBytes
   wavefun   :      41005. kBytes
 
  
  
 General timing and accounting informations for this job:
 ========================================================
  
                  Total CPU time used (sec):       98.756
                            User time (sec):       95.877
                          System time (sec):        2.880
                         Elapsed time (sec):       99.385
  
                   Maximum memory used (kb):      343184.
                   Average memory used (kb):          N/A
  
                          Minor page faults:        73975
                          Major page faults:            0
                 Voluntary context switches:         4874
