PROCAR new format
# of k-points:   10         # of bands:  252         # of ions:   36

 k-point     1 :    0.00000000 0.00000000 0.00000000     weight = 0.01562500

band     1 # energy   -8.73703358 # occ.  2.00000000
 
ion      s      p      d    tot
    1  0.007  0.001  0.000  0.008
    2  0.007  0.001  0.000  0.008
    3  0.007  0.001  0.000  0.008
    4  0.007  0.001  0.000  0.008
    5  0.007  0.001  0.000  0.008
    6  0.007  0.001  0.000  0.008
    7  0.007  0.001  0.000  0.008
    8  0.007  0.001  0.000  0.008
    9  0.007  0.001  0.000  0.008
   10  0.025  0.000  0.000  0.025
   11  0.025  0.000  0.000  0.025
   12  0.025  0.000  0.000  0.025
   13  0.025  0.000  0.000  0.025
   14  0.025  0.000  0.000  0.025
   15  0.025  0.000  0.000  0.025
   16  0.025  0.000  0.000  0.025
   17  0.025  0.000  0.000  0.025
   18  0.025  0.000  0.000  0.025
   19  0.025  0.000  0.000  0.025
   20  0.025  0.000  0.000  0.025
   21  0.025  0.000  0.000  0.025
   22  0.024  0.000  0.000  0.024
   23  0.025  0.000  0.000  0.025
   24  0.024  0.000  0.000  0.024
   25  0.025  0.000  0.000  0.025
   26  0.025  0.000  0.000  0.025
   27  0.024  0.000  0.000  0.024
   28  0.007  0.001  0.000  0.007
   29  0.006  0.001  0.000  0.007
   30  0.006  0.001  0.000  0.007
   31  0.006  0.001  0.000  0.007
   32  0.006  0.001  0.000  0.007
   33  0.006  0.001  0.000  0.007
   34  0.006  0.001  0.000  0.007
   35  0.006  0.001  0.000  0.007
   36  0.007  0.001  0.000  0.009
tot    0.565  0.017  0.001  0.582
 
band     2 # energy   -7.42598888 # occ.  2.00000000
 
ion      s      p      d    tot
    1  0.018  0.001  0.001  0.019
    2  0.018  0.001  0.001  0.019
    3  0.018  0.001  0.001  0.019
    4  0.018  0.001  0.001  0.019
    5  0.018  0.001  0.001  0.019
    6  0.018  0.001  0.001  0.019
    7  0.018  0.001  0.001  0.019
    8  0.018  0.001  0.001  0.019
    9  0.018  0.001  0.001  0.019
   10  0.010  0.002  0.001  0.012
   11  0.010  0.002  0.001  0.012
   12  0.010  0.002  0.001  0.012
   13  0.010  0.002  0.001  0.012
   14  0.010  0.002  0.001  0.012
   15  0.009  0.002  0.001  0.012
   16  0.010  0.002  0.001  0.012
   17  0.009  0.002  0.001  0.012
   18  0.009  0.002  0.001  0.012
   19  0.011  0.002  0.001  0.014
   20  0.010  0.002  0.001  0.013
   21  0.010  0.002  0.001  0.013
   22  0.011  0.002  0.001  0.014
   23  0.010  0.002  0.001  0.013
   24  0.011  0.002  0.001  0.014
   25  0.011  0.002  0.001  0.014
   26  0.011  0.002  0.001  0.014
   27  0.011  0.002  0.001  0.014
   28  0.019  0.001  0.000  0.020
   29  0.018  0.001  0.000  0.019
   30  0.018  0.001  0.000  0.019
   31  0.018  0.001  0.000  0.019
   32  0.018  0.001  0.000  0.019
   33  0.018  0.001  0.000  0.019
   34  0.018  0.001  0.000  0.019
   35  0.019  0.001  0.000  0.020
   36  0.018  0.001  0.001  0.019
tot    0.509  0.055  0.019  0.583
 
band     3 # energy   -5.80563839 # occ.  2.00000000
 
ion      s      p      d    tot
    1  0.017  0.000  0.006  0.023
    2  0.014  0.000  0.006  0.021
    3  0.014  0.000  0.006  0.021
    4  0.014  0.000  0.006  0.021
    5  0.005  0.001  0.007  0.013
    6  0.014  0.000  0.006  0.021
    7  0.014  0.000  0.006  0.021
    8  0.014  0.000  0.006  0.021
    9  0.026  0.000  0.004  0.030
   10  0.003  0.003  0.004  0.010
   11  0.015  0.005  0.001  0.021
   12  0.003  0.003  0.004  0.010
   13  0.015  0.005  0.001  0.021
   14  0.015  0.005  0.001  0.021
   15  0.000  0.002  0.005  0.007
   16  0.003  0.003  0.004  0.010
   17  0.000  0.002  0.005  0.007
   18  0.000  0.002  0.005  0.007
   19  0.000  0.003  0.005  0.008
   20  0.018  0.005  0.002  0.025
   21  0.018  0.005  0.002  0.025
   22  0.000  0.004  0.003  0.008
   23  0.018  0.005  0.002  0.025
   24  0.000  0.004  0.003  0.008
   25  0.000  0.003  0.005  0.008
   26  0.000  0.003  0.005  0.008
   27  0.000  0.004  0.003  0.008
   28  0.021  0.000  0.005  0.026
   29  0.015  0.000  0.007  0.022
   30  0.015  0.000  0.007  0.022
   31  0.015  0.000  0.007  0.022
   32  0.015  0.000  0.007  0.022
   33  0.015  0.000  0.007  0.022
   34  0.015  0.000  0.007  0.022
   35  0.026  0.000  0.005  0.031
   36  0.003  0.002  0.008  0.012
tot    0.381  0.074  0.170  0.625
 
band     4 # energy   -5.75568926 # occ.  2.00000000
 
ion      s      p      d    tot
    1  0.000  0.002  0.005  0.008
    2  0.000  0.001  0.002  0.003
    3  0.009  0.002  0.002  0.013
    4  0.000  0.001  0.002  0.003
    5  0.000  0.003  0.004  0.006
    6  0.006  0.002  0.002  0.010
    7  0.009  0.002  0.002  0.013
    8  0.006  0.002  0.002  0.010
    9  0.000  0.000  0.002  0.002
   10  0.000  0.001  0.016  0.017
   11  0.024  0.004  0.006  0.034
   12  0.043  0.004  0.007  0.053
   13  0.024  0.004  0.006  0.034
   14  0.000  0.013  0.004  0.017
   15  0.003  0.003  0.005  0.011
   16  0.044  0.004  0.006  0.054
   17  0.003  0.003  0.005  0.011
   18  0.000  0.006  0.008  0.014
   19  0.017  0.004  0.006  0.026
   20  0.000  0.003  0.017  0.019
   21  0.048  0.004  0.008  0.059
   22  0.007  0.003  0.005  0.015
   23  0.049  0.004  0.008  0.060
   24  0.000  0.004  0.010  0.015
   25  0.000  0.014  0.002  0.016
   26  0.017  0.004  0.006  0.026
   27  0.007  0.003  0.005  0.015
   28  0.000  0.002  0.003  0.006
   29  0.000  0.001  0.002  0.003
   30  0.008  0.002  0.003  0.012
   31  0.000  0.001  0.002  0.003
   32  0.008  0.002  0.003  0.013
   33  0.008  0.002  0.003  0.013
   34  0.008  0.002  0.003  0.013
   35  0.000  0.000  0.003  0.003
   36  0.000  0.005  0.006  0.011
tot    0.346  0.117  0.180  0.643
 
band     5 # energy   -5.75562141 # occ.  2.00000000
 
ion      s      p      d    tot
    1  0.000  0.002  0.005  0.008
    2  0.010  0.002  0.002  0.014
    3  0.001  0.001  0.002  0.004
    4  0.010  0.002  0.002  0.014
    5  0.000  0.003  0.004  0.006
    6  0.004  0.002  0.002  0.008
    7  0.001  0.001  0.002  0.004
    8  0.004  0.002  0.002  0.008
    9  0.000  0.000  0.002  0.002
   10  0.057  0.005  0.003  0.065
   11  0.008  0.010  0.004  0.022
   12  0.015  0.002  0.013  0.030
   13  0.008  0.010  0.004  0.022
   14  0.032  0.001  0.007  0.039
   15  0.001  0.005  0.007  0.013
   16  0.014  0.002  0.013  0.029
   17  0.001  0.005  0.007  0.013
   18  0.004  0.002  0.003  0.010
   19  0.006  0.010  0.003  0.019
   20  0.064  0.004  0.005  0.073
   21  0.016  0.003  0.014  0.033
   22  0.002  0.004  0.009  0.015
   23  0.016  0.003  0.014  0.032
   24  0.009  0.003  0.003  0.015
   25  0.023  0.000  0.007  0.030
   26  0.006  0.010  0.003  0.019
   27  0.002  0.004  0.009  0.015
   28  0.000  0.002  0.003  0.006
   29  0.010  0.003  0.003  0.016
   30  0.003  0.001  0.002  0.007
   31  0.010  0.003  0.003  0.016
   32  0.003  0.001  0.002  0.006
   33  0.003  0.001  0.002  0.006
   34  0.002  0.001  0.002  0.006
   35  0.000  0.000  0.003  0.003
   36  0.000  0.005  0.006  0.011
tot    0.346  0.117  0.180  0.643
 
band     6 # energy   -5.73748893 # occ.  2.00000000
 
ion      s      p      d    tot
    1  0.021  0.003  0.001  0.025
    2  0.000  0.002  0.004  0.006
    3  0.000  0.002  0.004  0.006
    4  0.000  0.002  0.004  0.006
    5  0.001  0.000  0.000  0.002
    6  0.000  0.002  0.004  0.006
    7  0.000  0.002  0.004  0.006
    8  0.000  0.002  0.004  0.006
    9  0.009  0.002  0.000  0.011
   10  0.031  0.006  0.006  0.043
   11  0.005  0.000  0.012  0.017
   12  0.030  0.006  0.006  0.042
   13  0.005  0.000  0.012  0.017
   14  0.005  0.000  0.012  0.017
   15  0.011  0.008  0.003  0.023
   16  0.030  0.006  0.006  0.042
   17  0.011  0.008  0.003  0.023
   18  0.012  0.008  0.003  0.024
   19  0.023  0.009  0.002  0.034
   20  0.000  0.003  0.011  0.013
   21  0.000  0.002  0.010  0.013
   22  0.024  0.002  0.009  0.036
   23  0.000  0.002  0.010  0.013
   24  0.024  0.002  0.009  0.035
   25  0.022  0.009  0.002  0.033
   26  0.023  0.009  0.002  0.034
   27  0.024  0.002  0.009  0.036
   28  0.018  0.003  0.001  0.021
   29  0.000  0.002  0.004  0.006
   30  0.000  0.002  0.004  0.006
   31  0.000  0.002  0.004  0.006
   32  0.000  0.002  0.004  0.006
   33  0.000  0.002  0.004  0.006
   34  0.000  0.002  0.004  0.006
   35  0.013  0.002  0.001  0.016
   36  0.000  0.000  0.000  0.000
tot    0.345  0.114  0.180  0.640
 
band     7 # energy   -5.73237307 # occ.  2.00000000
 
ion      s      p      d    tot
    1  0.000  0.001  0.002  0.003
    2  0.000  0.001  0.002  0.003
    3  0.009  0.002  0.003  0.014
    4  0.000  0.001  0.002  0.003
    5  0.000  0.001  0.004  0.005
    6  0.006  0.002  0.002  0.010
    7  0.009  0.002  0.003  0.014
    8  0.006  0.002  0.002  0.010
    9  0.000  0.003  0.005  0.009
   10  0.004  0.000  0.006  0.011
   11  0.008  0.002  0.012  0.021
   12  0.001  0.010  0.003  0.014
   13  0.008  0.002  0.012  0.021
   14  0.031  0.005  0.002  0.038
   15  0.015  0.006  0.009  0.030
   16  0.001  0.009  0.003  0.014
   17  0.015  0.006  0.009  0.030
   18  0.058  0.003  0.005  0.066
   19  0.010  0.001  0.013  0.024
   20  0.001  0.001  0.006  0.007
   21  0.000  0.009  0.004  0.013
   22  0.013  0.007  0.007  0.028
   23  0.000  0.009  0.004  0.013
   24  0.054  0.002  0.006  0.062
   25  0.041  0.005  0.002  0.047
   26  0.010  0.001  0.013  0.024
   27  0.013  0.007  0.007  0.028
   28  0.000  0.001  0.005  0.006
   29  0.000  0.001  0.002  0.003
   30  0.008  0.002  0.002  0.012
   31  0.000  0.001  0.002  0.003
   32  0.008  0.002  0.003  0.013
   33  0.008  0.002  0.002  0.012
   34  0.008  0.002  0.003  0.013
   35  0.000  0.003  0.005  0.009
   36  0.000  0.001  0.002  0.003
tot    0.344  0.116  0.178  0.638
 
band     8 # energy   -5.73229785 # occ.  2.00000000
 
ion      s      p      d    tot
    1  0.000  0.001  0.002  0.003
    2  0.010  0.002  0.002  0.015
    3  0.001  0.001  0.002  0.004
    4  0.010  0.002  0.002  0.015
    5  0.000  0.001  0.004  0.005
    6  0.004  0.002  0.002  0.008
    7  0.001  0.001  0.002  0.004
    8  0.004  0.002  0.002  0.008
    9  0.000  0.003  0.005  0.009
   10  0.000  0.013  0.002  0.015
   11  0.023  0.004  0.005  0.032
   12  0.003  0.003  0.005  0.012
   13  0.023  0.004  0.005  0.032
   14  0.000  0.001  0.015  0.016
   15  0.044  0.004  0.007  0.054
   16  0.003  0.003  0.005  0.012
   17  0.044  0.004  0.007  0.054
   18  0.000  0.007  0.010  0.018
   19  0.030  0.004  0.006  0.039
   20  0.000  0.012  0.003  0.015
   21  0.001  0.004  0.005  0.009
   22  0.040  0.004  0.006  0.050
   23  0.001  0.004  0.005  0.009
   24  0.000  0.009  0.008  0.017
   25  0.000  0.000  0.017  0.017
   26  0.030  0.004  0.006  0.040
   27  0.040  0.004  0.006  0.050
   28  0.000  0.001  0.005  0.006
   29  0.011  0.003  0.003  0.016
   30  0.003  0.001  0.003  0.007
   31  0.011  0.003  0.003  0.016
   32  0.003  0.001  0.002  0.006
   33  0.003  0.001  0.003  0.007
   34  0.003  0.001  0.002  0.006
   35  0.000  0.003  0.005  0.009
   36  0.000  0.001  0.002  0.003
tot    0.344  0.116  0.178  0.638
 
band     9 # energy   -5.68830795 # occ.  2.00000000
 
ion      s      p      d    tot
    1  0.000  0.000  0.001  0.002
    2  0.003  0.002  0.005  0.010
    3  0.003  0.002  0.005  0.010
    4  0.003  0.002  0.005  0.010
    5  0.037  0.003  0.000  0.040
    6  0.003  0.002  0.005  0.010
    7  0.003  0.002  0.005  0.010
    8  0.003  0.002  0.005  0.010
    9  0.002  0.002  0.004  0.009
   10  0.003  0.004  0.008  0.015
   11  0.017  0.009  0.004  0.030
   12  0.003  0.004  0.008  0.015
   13  0.017  0.009  0.004  0.030
   14  0.017  0.009  0.004  0.030
   15  0.027  0.002  0.010  0.039
   16  0.003  0.004  0.008  0.015
   17  0.027  0.002  0.010  0.039
   18  0.027  0.002  0.010  0.039
   19  0.010  0.001  0.009  0.020
   20  0.018  0.005  0.006  0.029
   21  0.018  0.005  0.006  0.029
   22  0.009  0.007  0.004  0.020
   23  0.018  0.005  0.006  0.029
   24  0.009  0.007  0.004  0.020
   25  0.009  0.001  0.009  0.020
   26  0.010  0.001  0.009  0.020
   27  0.009  0.007  0.004  0.020
   28  0.000  0.000  0.003  0.004
   29  0.003  0.001  0.004  0.008
   30  0.003  0.001  0.004  0.008
   31  0.003  0.001  0.004  0.008
   32  0.003  0.001  0.004  0.008
   33  0.003  0.001  0.004  0.008
   34  0.003  0.001  0.004  0.008
   35  0.000  0.001  0.002  0.003
   36  0.026  0.003  0.000  0.028
tot    0.355  0.108  0.188  0.651
 
band    10 # energy   -4.98752875 # occ.  2.00000000
 
ion      s      p      d    tot
    1  0.002  0.001  0.009  0.011
    2  0.004  0.001  0.009  0.014
    3  0.004  0.001  0.009  0.014
    4  0.004  0.001  0.009  0.014
    5  0.000  0.001  0.008  0.010
    6  0.004  0.001  0.009  0.014
    7  0.004  0.001  0.009  0.014
    8  0.004  0.001  0.009  0.014
    9  0.019  0.000  0.006  0.025
   10  0.009  0.000  0.024  0.033
   11  0.008  0.000  0.021  0.029
   12  0.009  0.000  0.024  0.033
   13  0.008  0.000  0.021  0.029
   14  0.008  0.000  0.021  0.029
   15  0.001  0.001  0.022  0.023
   16  0.009  0.000  0.024  0.033
   17  0.001  0.001  0.022  0.023
   18  0.001  0.001  0.022  0.023
   19  0.006  0.000  0.020  0.027
   20  0.011  0.000  0.027  0.037
   21  0.011  0.000  0.027  0.038
   22  0.001  0.000  0.021  0.023
   23  0.011  0.000  0.027  0.038
   24  0.001  0.000  0.021  0.023
   25  0.006  0.000  0.020  0.027
   26  0.006  0.000  0.020  0.027
   27  0.001  0.000  0.021  0.023
   28  0.001  0.001  0.007  0.009
   29  0.004  0.001  0.009  0.014
   30  0.004  0.001  0.009  0.014
   31  0.004  0.001  0.009  0.014
   32  0.004  0.001  0.009  0.014
   33  0.004  0.001  0.009  0.014
   34  0.004  0.001  0.009  0.014
   35  0.018  0.000  0.006  0.024
   36  0.000  0.002  0.007  0.009
tot    0.201  0.020  0.553  0.774
 
band    11 # energy   -4.97522665 # occ.  2.00000000
 
ion      s      p      d    tot
    1  0.000  0.001  0.012  0.013
    2  0.021  0.004  0.005  0.030
    3  0.012  0.003  0.005  0.020
    4  0.019  0.004  0.005  0.028
    5  0.000  0.003  0.009  0.012
    6  0.004  0.002  0.005  0.011
    7  0.006  0.002  0.005  0.014
    8  0.001  0.002  0.005  0.007
    9  0.000  0.006  0.009  0.015
   10  0.000  0.003  0.017  0.021
   11  0.013  0.004  0.010  0.027
   12  0.000  0.001  0.012  0.013
   13  0.010  0.003  0.012  0.024
   14  0.000  0.000  0.017  0.018
   15  0.015  0.003  0.008  0.026
   16  0.000  0.001  0.010  0.010
   17  0.011  0.003  0.013  0.027
   18  0.000  0.002  0.026  0.029
   19  0.006  0.003  0.010  0.019
   20  0.000  0.004  0.027  0.031
   21  0.002  0.002  0.015  0.019
   22  0.013  0.004  0.013  0.030
   23  0.003  0.001  0.010  0.014
   24  0.000  0.001  0.025  0.026
   25  0.000  0.001  0.014  0.015
   26  0.005  0.002  0.011  0.018
   27  0.018  0.005  0.008  0.031
   28  0.000  0.001  0.011  0.012
   29  0.022  0.004  0.006  0.032
   30  0.011  0.003  0.007  0.021
   31  0.021  0.004  0.006  0.030
   32  0.006  0.002  0.006  0.013
   33  0.005  0.002  0.007  0.014
   34  0.001  0.001  0.006  0.009
   35  0.000  0.006  0.008  0.014
   36  0.000  0.004  0.010  0.014
tot    0.226  0.095  0.384  0.705
 
band    12 # energy   -4.97522279 # occ.  2.00000000
 
ion      s      p      d    tot
    1  0.000  0.001  0.012  0.013
    2  0.000  0.002  0.005  0.007
    3  0.009  0.003  0.005  0.017
    4  0.002  0.002  0.005  0.009
    5  0.000  0.002  0.009  0.012
    6  0.017  0.003  0.005  0.025
    7  0.015  0.003  0.005  0.023
    8  0.020  0.003  0.005  0.029
    9  0.000  0.006  0.009  0.015
   10  0.000  0.000  0.008  0.009
   11  0.002  0.001  0.016  0.019
   12  0.000  0.002  0.014  0.016
   13  0.006  0.002  0.014  0.022
   14  0.014  0.004  0.008  0.027
   15  0.002  0.002  0.024  0.028
   16  0.000  0.003  0.016  0.019
   17  0.006  0.003  0.018  0.027
   18  0.019  0.004  0.005  0.027
   19  0.001  0.001  0.013  0.015
   20  0.003  0.000  0.009  0.012
   21  0.001  0.002  0.019  0.023
   22  0.009  0.003  0.018  0.029
   23  0.000  0.003  0.024  0.027
   24  0.019  0.005  0.006  0.031
   25  0.007  0.003  0.011  0.021
   26  0.003  0.002  0.012  0.017
   27  0.003  0.001  0.023  0.028
   28  0.000  0.001  0.011  0.012
   29  0.000  0.001  0.006  0.008
   30  0.011  0.003  0.006  0.020
   31  0.001  0.002  0.006  0.009
   32  0.016  0.003  0.007  0.026
   33  0.017  0.003  0.006  0.026
   34  0.020  0.004  0.006  0.031
   35  0.000  0.006  0.008  0.014
   36  0.000  0.004  0.010  0.013
tot    0.226  0.095  0.384  0.705
 
band    13 # energy   -4.97373422 # occ.  2.00000000
 
ion      s      p      d    tot
    1  0.038  0.003  0.000  0.041
    2  0.000  0.003  0.010  0.013
    3  0.001  0.003  0.010  0.013
    4  0.000  0.003  0.010  0.013
    5  0.000  0.000  0.001  0.002
    6  0.000  0.003  0.010  0.013
    7  0.001  0.003  0.010  0.013
    8  0.000  0.003  0.010  0.013
    9  0.022  0.004  0.002  0.027
   10  0.005  0.003  0.012  0.021
   11  0.003  0.000  0.016  0.018
   12  0.006  0.003  0.012  0.021
   13  0.003  0.000  0.016  0.018
   14  0.003  0.000  0.016  0.019
   15  0.009  0.003  0.017  0.028
   16  0.006  0.003  0.012  0.021
   17  0.009  0.003  0.017  0.028
   18  0.007  0.003  0.017  0.027
   19  0.003  0.003  0.019  0.025
   20  0.000  0.000  0.015  0.015
   21  0.000  0.000  0.016  0.017
   22  0.013  0.003  0.011  0.026
   23  0.000  0.000  0.016  0.017
   24  0.014  0.003  0.010  0.028
   25  0.004  0.004  0.018  0.025
   26  0.003  0.003  0.019  0.025
   27  0.013  0.003  0.011  0.026
   28  0.041  0.003  0.000  0.044
   29  0.000  0.003  0.011  0.014
   30  0.001  0.003  0.011  0.014
   31  0.000  0.003  0.011  0.014
   32  0.000  0.003  0.011  0.014
   33  0.001  0.003  0.011  0.014
   34  0.000  0.003  0.011  0.014
   35  0.020  0.003  0.002  0.026
   36  0.000  0.000  0.000  0.001
tot    0.224  0.086  0.400  0.710
 
band    14 # energy   -4.97197724 # occ.  2.00000000
 
ion      s      p      d    tot
    1  0.000  0.006  0.008  0.014
    2  0.021  0.004  0.005  0.030
    3  0.009  0.002  0.005  0.017
    4  0.021  0.004  0.005  0.030
    5  0.000  0.004  0.012  0.015
    6  0.002  0.002  0.005  0.009
    7  0.009  0.002  0.005  0.017
    8  0.002  0.002  0.005  0.010
    9  0.000  0.000  0.011  0.012
   10  0.023  0.006  0.006  0.034
   11  0.002  0.003  0.020  0.025
   12  0.005  0.002  0.020  0.027
   13  0.002  0.003  0.020  0.025
   14  0.007  0.001  0.006  0.014
   15  0.001  0.002  0.013  0.016
   16  0.006  0.002  0.020  0.027
   17  0.001  0.002  0.013  0.016
   18  0.004  0.002  0.009  0.016
   19  0.003  0.003  0.022  0.028
   20  0.018  0.005  0.009  0.032
   21  0.004  0.001  0.018  0.024
   22  0.000  0.002  0.014  0.016
   23  0.005  0.001  0.018  0.024
   24  0.000  0.001  0.009  0.010
   25  0.013  0.003  0.005  0.020
   26  0.003  0.003  0.022  0.028
   27  0.000  0.002  0.014  0.016
   28  0.000  0.005  0.010  0.015
   29  0.021  0.004  0.006  0.031
   30  0.007  0.002  0.006  0.015
   31  0.021  0.004  0.006  0.031
   32  0.003  0.002  0.006  0.011
   33  0.008  0.002  0.006  0.016
   34  0.003  0.002  0.006  0.011
   35  0.000  0.000  0.013  0.013
   36  0.000  0.006  0.006  0.012
tot    0.226  0.095  0.385  0.707
 
band    15 # energy   -4.97195780 # occ.  2.00000000
 
ion      s      p      d    tot
    1  0.000  0.006  0.008  0.014
    2  0.001  0.002  0.005  0.008
    3  0.012  0.003  0.006  0.020
    4  0.001  0.002  0.005  0.008
    5  0.000  0.003  0.012  0.015
    6  0.020  0.004  0.005  0.029
    7  0.012  0.003  0.006  0.020
    8  0.019  0.004  0.005  0.028
    9  0.000  0.000  0.011  0.012
   10  0.000  0.000  0.025  0.025
   11  0.005  0.002  0.011  0.017
   12  0.017  0.004  0.011  0.032
   13  0.005  0.002  0.011  0.017
   14  0.000  0.004  0.025  0.028
   15  0.003  0.002  0.011  0.016
   16  0.017  0.004  0.011  0.032
   17  0.003  0.002  0.011  0.016
   18  0.000  0.002  0.014  0.016
   19  0.010  0.003  0.011  0.023
   20  0.000  0.000  0.021  0.021
   21  0.014  0.004  0.012  0.029
   22  0.000  0.001  0.010  0.012
   23  0.013  0.004  0.012  0.029
   24  0.000  0.003  0.015  0.018
   25  0.000  0.002  0.028  0.030
   26  0.010  0.003  0.010  0.023
   27  0.000  0.001  0.011  0.012
   28  0.000  0.005  0.010  0.015
   29  0.000  0.001  0.006  0.008
   30  0.013  0.003  0.006  0.022
   31  0.000  0.001  0.006  0.008
   32  0.018  0.004  0.006  0.028
   33  0.013  0.003  0.006  0.022
   34  0.018  0.004  0.006  0.027
   35  0.000  0.000  0.013  0.013
   36  0.000  0.006  0.006  0.012
tot    0.226  0.095  0.385  0.707
 
band    16 # energy   -4.86541741 # occ.  2.00000000
 
ion      s      p      d    tot
    1  0.011  0.001  0.000  0.013
    2  0.000  0.003  0.011  0.014
    3  0.000  0.003  0.011  0.014
    4  0.000  0.003  0.011  0.014
    5  0.046  0.004  0.000  0.049
    6  0.000  0.003  0.011  0.014
    7  0.000  0.003  0.011  0.014
    8  0.000  0.003  0.011  0.014
    9  0.006  0.001  0.001  0.008
   10  0.001  0.001  0.024  0.026
   11  0.004  0.004  0.019  0.028
   12  0.001  0.001  0.024  0.026
   13  0.004  0.004  0.019  0.028
   14  0.004  0.004  0.019  0.028
   15  0.005  0.002  0.010  0.016
   16  0.001  0.001  0.024  0.026
   17  0.005  0.002  0.010  0.016
   18  0.005  0.002  0.010  0.016
   19  0.010  0.001  0.019  0.030
   20  0.010  0.004  0.011  0.025
   21  0.010  0.004  0.011  0.025
   22  0.003  0.001  0.018  0.022
   23  0.010  0.004  0.011  0.025
   24  0.003  0.001  0.018  0.022
   25  0.010  0.001  0.019  0.030
   26  0.010  0.001  0.019  0.030
   27  0.003  0.001  0.018  0.022
   28  0.003  0.002  0.004  0.009
   29  0.001  0.002  0.010  0.014
   30  0.001  0.002  0.010  0.014
   31  0.001  0.002  0.010  0.014
   32  0.001  0.002  0.010  0.014
   33  0.001  0.002  0.010  0.014
   34  0.001  0.002  0.010  0.014
   35  0.005  0.001  0.002  0.008
   36  0.044  0.006  0.000  0.049
tot    0.221  0.086  0.435  0.741
 
band    17 # energy   -4.29774273 # occ.  2.00000000
 
ion      s      p      d    tot
    1  0.000  0.000  0.036  0.036
    2  0.002  0.001  0.009  0.012
    3  0.006  0.001  0.010  0.017
    4  0.002  0.001  0.009  0.012
    5  0.000  0.001  0.011  0.012
    6  0.015  0.001  0.010  0.026
    7  0.006  0.001  0.010  0.016
    8  0.015  0.001  0.010  0.026
    9  0.000  0.003  0.008  0.011
   10  0.000  0.000  0.007  0.007
   11  0.000  0.002  0.012  0.013
   12  0.000  0.000  0.046  0.046
   13  0.000  0.001  0.011  0.013
   14  0.001  0.006  0.020  0.027
   15  0.000  0.001  0.028  0.030
   16  0.000  0.000  0.045  0.045
   17  0.000  0.001  0.029  0.031
   18  0.001  0.005  0.010  0.016
   19  0.000  0.001  0.013  0.015
   20  0.000  0.000  0.008  0.009
   21  0.000  0.000  0.054  0.054
   22  0.000  0.001  0.025  0.027
   23  0.000  0.000  0.053  0.053
   24  0.001  0.005  0.012  0.019
   25  0.001  0.005  0.019  0.025
   26  0.000  0.001  0.013  0.014
   27  0.000  0.001  0.025  0.026
   28  0.000  0.001  0.011  0.012
   29  0.002  0.001  0.011  0.014
   30  0.015  0.001  0.011  0.027
   31  0.003  0.001  0.011  0.014
   32  0.005  0.001  0.012  0.019
   33  0.015  0.001  0.011  0.027
   34  0.005  0.001  0.012  0.018
   35  0.000  0.002  0.008  0.010
   36  0.000  0.000  0.021  0.021
tot    0.098  0.052  0.650  0.801
 
band    18 # energy   -4.29772219 # occ.  2.00000000
 
ion      s      p      d    tot
    1  0.000  0.000  0.036  0.036
    2  0.013  0.001  0.010  0.024
    3  0.010  0.001  0.009  0.020
    4  0.013  0.001  0.010  0.025
    5  0.000  0.001  0.011  0.012
    6  0.000  0.001  0.009  0.010
    7  0.010  0.001  0.009  0.020
    8  0.000  0.001  0.009  0.011
    9  0.000  0.003  0.008  0.011
   10  0.000  0.000  0.058  0.058
   11  0.000  0.004  0.017  0.022
   12  0.000  0.000  0.019  0.019
   13  0.000  0.004  0.018  0.022
   14  0.000  0.000  0.008  0.008
   15  0.001  0.004  0.017  0.021
   16  0.000  0.000  0.020  0.020
   17  0.001  0.004  0.016  0.021
   18  0.000  0.000  0.035  0.035
   19  0.001  0.004  0.017  0.021
   20  0.000  0.000  0.069  0.069
   21  0.000  0.000  0.023  0.023
   22  0.001  0.004  0.016  0.021
   23  0.000  0.000  0.024  0.024
   24  0.000  0.000  0.029  0.029
   25  0.000  0.000  0.011  0.011
   26  0.001  0.004  0.017  0.021
   27  0.001  0.004  0.017  0.021
   28  0.000  0.001  0.011  0.012
   29  0.013  0.001  0.012  0.026
   30  0.000  0.001  0.012  0.013
   31  0.012  0.001  0.012  0.025
   32  0.009  0.001  0.011  0.021
   33  0.000  0.001  0.012  0.013
   34  0.010  0.001  0.011  0.021
   35  0.000  0.002  0.008  0.010
   36  0.000  0.000  0.021  0.021
tot    0.098  0.052  0.651  0.801
 
band    19 # energy   -4.28461483 # occ.  2.00000000
 
ion      s      p      d    tot
    1  0.000  0.002  0.001  0.003
    2  0.002  0.001  0.009  0.012
    3  0.006  0.001  0.010  0.017
    4  0.002  0.001  0.009  0.012
    5  0.000  0.002  0.025  0.026
    6  0.015  0.001  0.010  0.026
    7  0.006  0.001  0.010  0.017
    8  0.015  0.001  0.010  0.026
    9  0.000  0.000  0.029  0.029
   10  0.000  0.000  0.010  0.010
   11  0.001  0.001  0.017  0.018
   12  0.001  0.005  0.017  0.024
   13  0.001  0.001  0.017  0.019
   14  0.000  0.000  0.056  0.056
   15  0.000  0.001  0.018  0.019
   16  0.001  0.005  0.017  0.024
   17  0.000  0.001  0.018  0.020
   18  0.000  0.000  0.031  0.032
   19  0.001  0.001  0.017  0.019
   20  0.000  0.000  0.011  0.011
   21  0.001  0.005  0.021  0.027
   22  0.000  0.001  0.018  0.019
   23  0.001  0.005  0.021  0.027
   24  0.000  0.000  0.032  0.032
   25  0.000  0.000  0.057  0.057
   26  0.001  0.001  0.017  0.019
   27  0.000  0.001  0.018  0.019
   28  0.000  0.002  0.026  0.028
   29  0.002  0.001  0.010  0.013
   30  0.015  0.001  0.012  0.028
   31  0.002  0.001  0.010  0.013
   32  0.006  0.001  0.011  0.019
   33  0.015  0.001  0.012  0.028
   34  0.006  0.001  0.011  0.019
   35  0.000  0.000  0.031  0.032
   36  0.000  0.003  0.000  0.003
tot    0.099  0.053  0.648  0.801
 
band    20 # energy   -4.28459730 # occ.  2.00000000
 
ion      s      p      d    tot
    1  0.000  0.002  0.001  0.003
    2  0.013  0.001  0.010  0.025
    3  0.009  0.001  0.009  0.019
    4  0.013  0.001  0.010  0.025
    5  0.000  0.002  0.025  0.026
    6  0.000  0.001  0.009  0.010
    7  0.009  0.001  0.009  0.019
    8  0.000  0.001  0.009  0.010
    9  0.000  0.000  0.029  0.029
   10  0.001  0.007  0.020  0.029
   11  0.000  0.000  0.043  0.044
   12  0.000  0.002  0.012  0.014
   13  0.000  0.000  0.043  0.043
   14  0.001  0.002  0.004  0.006
   15  0.000  0.001  0.027  0.027
   16  0.000  0.002  0.012  0.014
   17  0.000  0.001  0.027  0.027
   18  0.000  0.002  0.014  0.016
   19  0.000  0.000  0.044  0.044
   20  0.002  0.007  0.024  0.032
   21  0.000  0.002  0.014  0.017
   22  0.000  0.001  0.027  0.028
   23  0.000  0.002  0.014  0.017
   24  0.000  0.002  0.014  0.015
   25  0.001  0.002  0.004  0.006
   26  0.000  0.000  0.044  0.044
   27  0.000  0.001  0.027  0.028
   28  0.000  0.002  0.026  0.028
   29  0.014  0.001  0.012  0.027
   30  0.000  0.001  0.010  0.011
   31  0.014  0.001  0.012  0.027
   32  0.010  0.001  0.011  0.022
   33  0.000  0.001  0.010  0.011
   34  0.009  0.001  0.011  0.021
   35  0.000  0.000  0.031  0.031
   36  0.000  0.003  0.000  0.003
tot    0.099  0.053  0.648  0.801
 
band    21 # energy   -4.28439943 # occ.  2.00000000
 
ion      s      p      d    tot
    1  0.003  0.000  0.001  0.004
    2  0.000  0.001  0.017  0.018
    3  0.000  0.001  0.017  0.019
    4  0.000  0.001  0.017  0.019
    5  0.013  0.000  0.000  0.014
    6  0.000  0.001  0.018  0.019
    7  0.000  0.001  0.017  0.019
    8  0.000  0.001  0.018  0.019
    9  0.028  0.001  0.002  0.031
   10  0.000  0.001  0.010  0.012
   11  0.000  0.000  0.019  0.019
   12  0.000  0.001  0.010  0.012
   13  0.000  0.000  0.019  0.019
   14  0.000  0.000  0.019  0.019
   15  0.001  0.003  0.038  0.042
   16  0.000  0.001  0.010  0.012
   17  0.001  0.003  0.038  0.042
   18  0.001  0.003  0.037  0.041
   19  0.000  0.001  0.028  0.030
   20  0.000  0.001  0.008  0.009
   21  0.000  0.000  0.008  0.009
   22  0.001  0.003  0.033  0.037
   23  0.000  0.000  0.008  0.009
   24  0.001  0.003  0.032  0.037
   25  0.000  0.001  0.028  0.030
   26  0.000  0.001  0.028  0.030
   27  0.001  0.003  0.033  0.037
   28  0.023  0.001  0.001  0.024
   29  0.000  0.001  0.023  0.024
   30  0.000  0.001  0.023  0.024
   31  0.000  0.001  0.023  0.024
   32  0.000  0.001  0.022  0.024
   33  0.000  0.001  0.023  0.024
   34  0.000  0.001  0.023  0.024
   35  0.024  0.001  0.003  0.027
   36  0.000  0.000  0.001  0.001
tot    0.097  0.050  0.655  0.801
 
band    22 # energy   -4.22309803 # occ.  2.00000000
 
ion      s      p      d    tot
    1  0.028  0.001  0.002  0.030
    2  0.000  0.001  0.019  0.020
    3  0.000  0.001  0.019  0.020
    4  0.000  0.001  0.019  0.020
    5  0.012  0.000  0.003  0.015
    6  0.000  0.001  0.019  0.020
    7  0.000  0.001  0.019  0.020
    8  0.000  0.001  0.019  0.020
    9  0.004  0.000  0.000  0.004
   10  0.000  0.002  0.030  0.033
   11  0.001  0.002  0.027  0.030
   12  0.000  0.002  0.030  0.033
   13  0.001  0.002  0.027  0.030
   14  0.001  0.002  0.027  0.030
   15  0.000  0.000  0.009  0.009
   16  0.000  0.002  0.030  0.033