PROCAR new format
# of k-points:   10         # of bands:  252         # of ions:   38

 k-point     1 :    0.00000000 0.00000000 0.00000000     weight = 0.01562500

band     1 # energy  -22.31049966 # occ.  2.00000000
 
ion      s      p      d    tot
    1  0.000  0.000  0.000  0.000
    2  0.000  0.000  0.000  0.000
    3  0.000  0.000  0.000  0.000
    4  0.000  0.000  0.000  0.000
    5  0.000  0.000  0.000  0.000
    6  0.000  0.000  0.000  0.000
    7  0.000  0.000  0.000  0.000
    8  0.000  0.000  0.000  0.000
    9  0.000  0.000  0.000  0.000
   10  0.000  0.000  0.000  0.000
   11  0.000  0.000  0.000  0.000
   12  0.000  0.000  0.000  0.000
   13  0.000  0.000  0.000  0.000
   14  0.000  0.000  0.000  0.000
   15  0.000  0.000  0.000  0.000
   16  0.000  0.000  0.000  0.000
   17  0.000  0.000  0.000  0.000
   18  0.000  0.000  0.000  0.000
   19  0.000  0.000  0.000  0.000
   20  0.000  0.000  0.000  0.000
   21  0.000  0.000  0.000  0.000
   22  0.000  0.000  0.000  0.000
   23  0.000  0.000  0.000  0.000
   24  0.000  0.000  0.000  0.000
   25  0.000  0.000  0.000  0.000
   26  0.000  0.000  0.000  0.000
   27  0.000  0.000  0.000  0.000
   28  0.000  0.000  0.000  0.000
   29  0.000  0.000  0.000  0.000
   30  0.000  0.000  0.000  0.000
   31  0.000  0.000  0.000  0.000
   32  0.000  0.000  0.000  0.000
   33  0.000  0.000  0.000  0.000
   34  0.000  0.000  0.000  0.000
   35  0.000  0.000  0.000  0.000
   36  0.000  0.000  0.000  0.001
   37  0.157  0.112  0.000  0.269
   38  0.634  0.093  0.000  0.727
tot    0.792  0.205  0.000  0.997
 
band     2 # energy   -8.82885051 # occ.  2.00000000
 
ion      s      p      d    tot
    1  0.000  0.000  0.000  0.000
    2  0.000  0.000  0.000  0.000
    3  0.000  0.000  0.000  0.000
    4  0.000  0.000  0.000  0.000
    5  0.000  0.000  0.000  0.000
    6  0.000  0.000  0.000  0.000
    7  0.000  0.000  0.000  0.000
    8  0.000  0.000  0.000  0.000
    9  0.000  0.000  0.000  0.000
   10  0.000  0.000  0.000  0.000
   11  0.000  0.000  0.000  0.000
   12  0.000  0.000  0.000  0.000
   13  0.000  0.000  0.000  0.000
   14  0.000  0.000  0.000  0.000
   15  0.000  0.000  0.000  0.000
   16  0.000  0.000  0.000  0.000
   17  0.000  0.000  0.000  0.000
   18  0.000  0.000  0.000  0.000
   19  0.000  0.000  0.000  0.000
   20  0.001  0.001  0.002  0.003
   21  0.001  0.001  0.002  0.003
   22  0.000  0.000  0.000  0.000
   23  0.001  0.001  0.002  0.003
   24  0.000  0.000  0.000  0.000
   25  0.000  0.000  0.000  0.000
   26  0.000  0.000  0.000  0.000
   27  0.000  0.000  0.000  0.000
   28  0.000  0.000  0.000  0.000
   29  0.001  0.000  0.001  0.001
   30  0.001  0.000  0.001  0.001
   31  0.001  0.000  0.001  0.001
   32  0.001  0.000  0.001  0.001
   33  0.001  0.000  0.001  0.001
   34  0.001  0.000  0.001  0.001
   35  0.000  0.000  0.000  0.000
   36  0.099  0.040  0.146  0.285
   37  0.291  0.038  0.000  0.329
   38  0.103  0.098  0.000  0.202
tot    0.501  0.180  0.154  0.835
 
band     3 # energy   -6.39068577 # occ.  2.00000000
 
ion      s      p      d    tot
    1  0.002  0.000  0.000  0.003
    2  0.002  0.000  0.000  0.002
    3  0.002  0.000  0.000  0.002
    4  0.002  0.000  0.000  0.002
    5  0.002  0.000  0.000  0.002
    6  0.002  0.000  0.000  0.002
    7  0.002  0.000  0.000  0.002
    8  0.002  0.000  0.000  0.002
    9  0.002  0.000  0.000  0.002
   10  0.011  0.000  0.000  0.011
   11  0.010  0.000  0.000  0.010
   12  0.011  0.000  0.000  0.011
   13  0.010  0.000  0.000  0.010
   14  0.010  0.000  0.000  0.010
   15  0.009  0.000  0.000  0.009
   16  0.011  0.000  0.000  0.011
   17  0.009  0.000  0.000  0.009
   18  0.009  0.000  0.000  0.009
   19  0.012  0.000  0.000  0.012
   20  0.021  0.000  0.004  0.024
   21  0.021  0.000  0.004  0.024
   22  0.012  0.000  0.000  0.012
   23  0.021  0.000  0.004  0.024
   24  0.012  0.000  0.000  0.012
   25  0.012  0.000  0.000  0.012
   26  0.012  0.000  0.000  0.012
   27  0.012  0.000  0.000  0.012
   28  0.003  0.000  0.000  0.004
   29  0.005  0.000  0.000  0.006
   30  0.005  0.000  0.000  0.006
   31  0.005  0.000  0.000  0.006
   32  0.005  0.000  0.000  0.006
   33  0.005  0.000  0.000  0.006
   34  0.005  0.000  0.000  0.006
   35  0.003  0.000  0.000  0.004
   36  0.052  0.000  0.030  0.083
   37  0.003  0.078  0.000  0.081
   38  0.037  0.206  0.000  0.243
tot    0.370  0.291  0.046  0.707
 
band     4 # energy   -6.09823982 # occ.  2.00000000
 
ion      s      p      d    tot
    1  0.004  0.000  0.000  0.005
    2  0.005  0.000  0.000  0.005
    3  0.005  0.000  0.000  0.005
    4  0.005  0.000  0.000  0.005
    5  0.005  0.000  0.000  0.005
    6  0.005  0.000  0.000  0.005
    7  0.005  0.000  0.000  0.005
    8  0.005  0.000  0.000  0.005
    9  0.005  0.000  0.000  0.005
   10  0.014  0.000  0.001  0.015
   11  0.015  0.000  0.000  0.016
   12  0.014  0.000  0.001  0.015
   13  0.015  0.000  0.000  0.016
   14  0.015  0.000  0.000  0.016
   15  0.016  0.000  0.000  0.017
   16  0.014  0.000  0.001  0.015
   17  0.016  0.000  0.000  0.017
   18  0.016  0.000  0.000  0.017
   19  0.009  0.000  0.000  0.010
   20  0.004  0.001  0.006  0.011
   21  0.004  0.001  0.006  0.011
   22  0.011  0.000  0.000  0.011
   23  0.004  0.001  0.006  0.011
   24  0.011  0.000  0.000  0.011
   25  0.009  0.000  0.000  0.010
   26  0.009  0.000  0.000  0.010
   27  0.011  0.000  0.000  0.011
   28  0.002  0.000  0.000  0.002
   29  0.001  0.000  0.001  0.002
   30  0.001  0.000  0.001  0.002
   31  0.001  0.000  0.001  0.002
   32  0.001  0.000  0.001  0.002
   33  0.001  0.000  0.001  0.002
   34  0.001  0.000  0.001  0.002
   35  0.002  0.000  0.000  0.002
   36  0.023  0.010  0.071  0.104
   37  0.000  0.104  0.000  0.104
   38  0.028  0.197  0.000  0.225
tot    0.309  0.322  0.101  0.732
 
band     5 # energy   -5.46596161 # occ.  2.00000000
 
ion      s      p      d    tot
    1  0.000  0.000  0.000  0.000
    2  0.000  0.000  0.000  0.000
    3  0.000  0.000  0.000  0.000
    4  0.000  0.000  0.000  0.000
    5  0.000  0.000  0.000  0.000
    6  0.000  0.000  0.000  0.000
    7  0.000  0.000  0.000  0.000
    8  0.000  0.000  0.000  0.000
    9  0.000  0.000  0.000  0.000
   10  0.000  0.000  0.000  0.001
   11  0.000  0.000  0.000  0.000
   12  0.000  0.000  0.000  0.000
   13  0.000  0.000  0.000  0.000
   14  0.000  0.000  0.000  0.000
   15  0.000  0.000  0.000  0.000
   16  0.000  0.000  0.000  0.000
   17  0.000  0.000  0.000  0.000
   18  0.000  0.000  0.000  0.000
   19  0.000  0.000  0.001  0.001
   20  0.001  0.000  0.004  0.005
   21  0.000  0.000  0.003  0.004
   22  0.000  0.000  0.000  0.000
   23  0.000  0.000  0.003  0.004
   24  0.000  0.000  0.000  0.000
   25  0.000  0.000  0.000  0.001
   26  0.000  0.000  0.001  0.001
   27  0.000  0.000  0.000  0.000
   28  0.000  0.000  0.000  0.000
   29  0.001  0.000  0.005  0.006
   30  0.000  0.000  0.001  0.001
   31  0.001  0.000  0.005  0.006
   32  0.001  0.000  0.005  0.006
   33  0.000  0.000  0.001  0.001
   34  0.001  0.000  0.005  0.006
   35  0.000  0.000  0.000  0.000
   36  0.000  0.003  0.067  0.071
   37  0.000  0.181  0.000  0.181
   38  0.000  0.383  0.000  0.383
tot    0.005  0.569  0.105  0.679
 
band     6 # energy   -5.46586186 # occ.  2.00000000
 
ion      s      p      d    tot
    1  0.000  0.000  0.000  0.000
    2  0.000  0.000  0.000  0.000
    3  0.000  0.000  0.000  0.000
    4  0.000  0.000  0.000  0.000
    5  0.000  0.000  0.000  0.000
    6  0.000  0.000  0.000  0.000
    7  0.000  0.000  0.000  0.000
    8  0.000  0.000  0.000  0.000
    9  0.000  0.000  0.000  0.000
   10  0.000  0.000  0.000  0.000
   11  0.000  0.000  0.000  0.000
   12  0.000  0.000  0.000  0.001
   13  0.000  0.000  0.000  0.000
   14  0.000  0.000  0.000  0.000
   15  0.000  0.000  0.000  0.000
   16  0.000  0.000  0.000  0.001
   17  0.000  0.000  0.000  0.000
   18  0.000  0.000  0.000  0.000
   19  0.000  0.000  0.000  0.001
   20  0.000  0.000  0.003  0.003
   21  0.001  0.000  0.004  0.004
   22  0.000  0.000  0.000  0.000
   23  0.001  0.000  0.004  0.004
   24  0.000  0.000  0.001  0.001
   25  0.000  0.000  0.001  0.001
   26  0.000  0.000  0.000  0.001
   27  0.000  0.000  0.000  0.000
   28  0.000  0.000  0.000  0.000
   29  0.000  0.000  0.003  0.003
   30  0.001  0.001  0.006  0.007
   31  0.000  0.000  0.003  0.003
   32  0.000  0.000  0.002  0.003
   33  0.001  0.001  0.006  0.007
   34  0.000  0.000  0.002  0.003
   35  0.000  0.000  0.000  0.000
   36  0.000  0.003  0.067  0.071
   37  0.000  0.181  0.000  0.181
   38  0.000  0.383  0.000  0.383
tot    0.005  0.569  0.105  0.679
 
band     7 # energy   -5.35815027 # occ.  2.00000000
 
ion      s      p      d    tot
    1  0.008  0.000  0.000  0.009
    2  0.007  0.000  0.000  0.008
    3  0.007  0.000  0.000  0.008
    4  0.007  0.000  0.000  0.008
    5  0.006  0.000  0.000  0.007
    6  0.007  0.000  0.000  0.008
    7  0.007  0.000  0.000  0.008
    8  0.007  0.000  0.000  0.008
    9  0.007  0.000  0.000  0.007
   10  0.011  0.001  0.013  0.025
   11  0.009  0.001  0.016  0.026
   12  0.011  0.001  0.013  0.025
   13  0.009  0.001  0.016  0.026
   14  0.009  0.001  0.016  0.026
   15  0.008  0.001  0.016  0.025
   16  0.011  0.001  0.013  0.025
   17  0.008  0.001  0.016  0.025
   18  0.008  0.001  0.016  0.025
   19  0.013  0.001  0.017  0.031
   20  0.010  0.001  0.018  0.029
   21  0.010  0.001  0.018  0.029
   22  0.015  0.001  0.017  0.034
   23  0.010  0.001  0.018  0.029
   24  0.015  0.001  0.017  0.034
   25  0.013  0.001  0.017  0.031
   26  0.013  0.001  0.017  0.031
   27  0.015  0.001  0.017  0.034
   28  0.007  0.001  0.000  0.008
   29  0.006  0.001  0.000  0.007
   30  0.006  0.001  0.000  0.007
   31  0.006  0.001  0.000  0.007
   32  0.006  0.001  0.000  0.007
   33  0.006  0.001  0.000  0.007
   34  0.006  0.001  0.000  0.007
   35  0.008  0.001  0.000  0.008
   36  0.001  0.003  0.014  0.019
   37  0.001  0.008  0.000  0.009
   38  0.001  0.007  0.000  0.008
tot    0.319  0.041  0.312  0.673
 
band     8 # energy   -5.12186571 # occ.  2.00000000
 
ion      s      p      d    tot
    1  0.013  0.000  0.023  0.035
    2  0.012  0.000  0.018  0.030
    3  0.012  0.000  0.018  0.030
    4  0.012  0.000  0.018  0.030
    5  0.010  0.000  0.016  0.026
    6  0.012  0.000  0.018  0.030
    7  0.012  0.000  0.018  0.030
    8  0.012  0.000  0.018  0.030
    9  0.014  0.000  0.017  0.031
   10  0.000  0.000  0.023  0.024
   11  0.001  0.000  0.015  0.016
   12  0.000  0.000  0.023  0.024
   13  0.001  0.000  0.015  0.016
   14  0.001  0.000  0.015  0.016
   15  0.000  0.000  0.016  0.016
   16  0.000  0.000  0.023  0.024
   17  0.000  0.000  0.016  0.016
   18  0.000  0.000  0.016  0.016
   19  0.000  0.000  0.011  0.012
   20  0.000  0.000  0.024  0.024
   21  0.000  0.000  0.024  0.024
   22  0.000  0.000  0.011  0.011
   23  0.000  0.000  0.024  0.024
   24  0.000  0.000  0.011  0.011
   25  0.000  0.000  0.011  0.012
   26  0.000  0.000  0.011  0.012
   27  0.000  0.000  0.011  0.011
   28  0.006  0.000  0.010  0.015
   29  0.008  0.000  0.011  0.019
   30  0.008  0.000  0.011  0.019
   31  0.008  0.000  0.011  0.019
   32  0.008  0.000  0.011  0.019
   33  0.008  0.000  0.011  0.019
   34  0.008  0.000  0.011  0.019
   35  0.008  0.000  0.008  0.017
   36  0.010  0.000  0.025  0.036
   37  0.001  0.002  0.000  0.002
   38  0.000  0.001  0.000  0.001
tot    0.189  0.008  0.575  0.772
 
band     9 # energy   -4.97898232 # occ.  2.00000000
 
ion      s      p      d    tot
    1  0.000  0.000  0.006  0.006
    2  0.000  0.000  0.003  0.003
    3  0.001  0.000  0.005  0.007
    4  0.000  0.000  0.003  0.003
    5  0.000  0.000  0.009  0.009
    6  0.001  0.001  0.005  0.007
    7  0.001  0.000  0.005  0.006
    8  0.001  0.001  0.005  0.007
    9  0.000  0.000  0.001  0.001
   10  0.010  0.001  0.013  0.024
   11  0.009  0.001  0.050  0.059
   12  0.003  0.000  0.067  0.070
   13  0.008  0.001  0.050  0.059
   14  0.027  0.001  0.015  0.043
   15  0.002  0.001  0.015  0.018
   16  0.003  0.000  0.066  0.069
   17  0.002  0.001  0.015  0.018
   18  0.003  0.000  0.041  0.044
   19  0.000  0.001  0.027  0.028
   20  0.021  0.001  0.029  0.051
   21  0.004  0.001  0.023  0.028
   22  0.004  0.000  0.048  0.052
   23  0.004  0.001  0.023  0.029
   24  0.016  0.001  0.005  0.022
   25  0.000  0.000  0.019  0.020
   26  0.000  0.001  0.027  0.028
   27  0.004  0.000  0.047  0.051
   28  0.000  0.000  0.000  0.000
   29  0.002  0.001  0.005  0.007
   30  0.000  0.000  0.002  0.003
   31  0.002  0.001  0.005  0.007
   32  0.000  0.000  0.002  0.002
   33  0.000  0.000  0.002  0.003
   34  0.000  0.000  0.002  0.002
   35  0.000  0.000  0.006  0.007
   36  0.000  0.001  0.003  0.004
   37  0.000  0.000  0.000  0.000
   38  0.000  0.002  0.000  0.002
tot    0.130  0.020  0.650  0.800
 
band    10 # energy   -4.97897451 # occ.  2.00000000
 
ion      s      p      d    tot
    1  0.000  0.000  0.006  0.006
    2  0.002  0.001  0.006  0.008
    3  0.001  0.000  0.003  0.004
    4  0.002  0.001  0.006  0.008
    5  0.000  0.000  0.009  0.009
    6  0.000  0.000  0.003  0.004
    7  0.001  0.000  0.003  0.004
    8  0.000  0.000  0.003  0.004
    9  0.000  0.000  0.001  0.001
   10  0.000  0.000  0.088  0.088
   11  0.022  0.001  0.028  0.051
   12  0.008  0.001  0.029  0.037
   13  0.022  0.001  0.027  0.050
   14  0.000  0.001  0.060  0.061
   15  0.003  0.001  0.029  0.033
   16  0.008  0.001  0.030  0.038
   17  0.003  0.000  0.030  0.034
   18  0.000  0.002  0.012  0.014
   19  0.000  0.000  0.023  0.024
   20  0.000  0.001  0.024  0.025
   21  0.015  0.001  0.026  0.042
   22  0.012  0.001  0.019  0.031
   23  0.014  0.001  0.026  0.041
   24  0.000  0.000  0.062  0.062
   25  0.000  0.001  0.027  0.028
   26  0.000  0.000  0.023  0.024
   27  0.012  0.001  0.020  0.032
   28  0.000  0.000  0.000  0.000
   29  0.000  0.000  0.002  0.002
   30  0.001  0.000  0.003  0.005
   31  0.000  0.000  0.002  0.002
   32  0.001  0.000  0.004  0.006
   33  0.001  0.000  0.003  0.005
   34  0.001  0.000  0.004  0.006
   35  0.000  0.000  0.007  0.007
   36  0.000  0.001  0.003  0.004
   37  0.000  0.000  0.000  0.000
   38  0.000  0.001  0.000  0.001
tot    0.130  0.020  0.650  0.800
 
band    11 # energy   -4.97851257 # occ.  2.00000000
 
ion      s      p      d    tot
    1  0.004  0.000  0.001  0.005
    2  0.001  0.000  0.009  0.010
    3  0.001  0.000  0.009  0.011
    4  0.001  0.000  0.009  0.010
    5  0.007  0.000  0.004  0.012
    6  0.002  0.000  0.009  0.011
    7  0.001  0.000  0.009  0.011
    8  0.002  0.000  0.009  0.011
    9  0.001  0.001  0.018  0.021
   10  0.000  0.000  0.057  0.058
   11  0.004  0.001  0.009  0.014
   12  0.000  0.001  0.062  0.062
   13  0.004  0.001  0.009  0.014
   14  0.008  0.001  0.011  0.019
   15  0.014  0.000  0.036  0.050
   16  0.000  0.001  0.062  0.062
   17  0.014  0.000  0.036  0.050
   18  0.016  0.000  0.028  0.044
   19  0.008  0.000  0.020  0.028
   20  0.005  0.000  0.010  0.015
   21  0.007  0.000  0.014  0.022
   22  0.001  0.001  0.024  0.026
   23  0.007  0.000  0.014  0.022
   24  0.000  0.001  0.024  0.025
   25  0.008  0.000  0.024  0.032
   26  0.008  0.000  0.020  0.028
   27  0.001  0.001  0.024  0.026
   28  0.002  0.001  0.007  0.010
   29  0.001  0.000  0.010  0.010
   30  0.001  0.000  0.010  0.012
   31  0.001  0.000  0.010  0.010
   32  0.001  0.000  0.010  0.011
   33  0.001  0.000  0.010  0.012
   34  0.001  0.000  0.010  0.011
   35  0.001  0.000  0.000  0.001
   36  0.008  0.003  0.013  0.024
   37  0.001  0.003  0.000  0.003
   38  0.000  0.002  0.000  0.002
tot    0.141  0.022  0.641  0.805
 
band    12 # energy   -4.96990914 # occ.  2.00000000
 
ion      s      p      d    tot
    1  0.000  0.000  0.006  0.006
    2  0.001  0.000  0.005  0.006
    3  0.000  0.000  0.003  0.004
    4  0.001  0.000  0.005  0.006
    5  0.000  0.000  0.001  0.001
    6  0.000  0.000  0.003  0.003
    7  0.000  0.000  0.003  0.004
    8  0.000  0.000  0.003  0.003
    9  0.000  0.000  0.007  0.008
   10  0.014  0.000  0.032  0.047
   11  0.000  0.001  0.047  0.047
   12  0.004  0.001  0.018  0.023
   13  0.000  0.001  0.046  0.047
   14  0.001  0.000  0.022  0.023
   15  0.005  0.000  0.055  0.060
   16  0.003  0.001  0.018  0.023
   17  0.005  0.000  0.054  0.060
   18  0.021  0.001  0.008  0.029
   19  0.006  0.001  0.035  0.042
   20  0.008  0.001  0.013  0.022
   21  0.002  0.000  0.064  0.066
   22  0.001  0.001  0.023  0.026
   23  0.002  0.000  0.064  0.067
   24  0.004  0.000  0.033  0.037
   25  0.023  0.001  0.018  0.041
   26  0.006  0.001  0.035  0.042
   27  0.001  0.001  0.023  0.025
   28  0.000  0.000  0.006  0.006
   29  0.000  0.000  0.002  0.002
   30  0.001  0.000  0.004  0.005
   31  0.000  0.000  0.002  0.002
   32  0.000  0.000  0.003  0.004
   33  0.001  0.000  0.004  0.005
   34  0.000  0.000  0.003  0.004
   35  0.000  0.000  0.002  0.002
   36  0.000  0.000  0.001  0.001
   37  0.000  0.002  0.000  0.002
   38  0.000  0.006  0.000  0.006
tot    0.111  0.024  0.672  0.807
 
band    13 # energy   -4.96989872 # occ.  2.00000000
 
ion      s      p      d    tot
    1  0.000  0.000  0.006  0.006
    2  0.000  0.000  0.002  0.003
    3  0.001  0.000  0.004  0.005
    4  0.000  0.000  0.002  0.003
    5  0.000  0.000  0.001  0.001
    6  0.001  0.000  0.005  0.006
    7  0.001  0.000  0.004  0.005
    8  0.001  0.000  0.005  0.006
    9  0.000  0.000  0.007  0.008
   10  0.000  0.001  0.014  0.015
   11  0.000  0.000  0.030  0.031
   12  0.011  0.001  0.028  0.039
   13  0.000  0.000  0.031  0.031
   14  0.000  0.001  0.054  0.055
   15  0.016  0.001  0.023  0.039
   16  0.011  0.001  0.028  0.039
   17  0.015  0.001  0.024  0.040
   18  0.000  0.000  0.070  0.070
   19  0.017  0.001  0.024  0.041
   20  0.000  0.000  0.081  0.081
   21  0.006  0.000  0.030  0.037
   22  0.003  0.001  0.030  0.033
   23  0.006  0.000  0.030  0.036
   24  0.000  0.001  0.020  0.021
   25  0.000  0.001  0.041  0.042
   26  0.017  0.001  0.024  0.041
   27  0.003  0.001  0.030  0.033
   28  0.000  0.000  0.006  0.006
   29  0.001  0.000  0.004  0.005
   30  0.000  0.000  0.002  0.002
   31  0.001  0.000  0.004  0.005
   32  0.000  0.000  0.002  0.003
   33  0.000  0.000  0.002  0.002
   34  0.000  0.000  0.002  0.003
   35  0.000  0.000  0.002  0.002
   36  0.000  0.000  0.001  0.001
   37  0.000  0.002  0.000  0.002
   38  0.000  0.006  0.000  0.006
tot    0.111  0.024  0.672  0.807
 
band    14 # energy   -4.96767713 # occ.  2.00000000
 
ion      s      p      d    tot
    1  0.001  0.000  0.014  0.016
    2  0.003  0.000  0.010  0.013
    3  0.003  0.000  0.010  0.013
    4  0.003  0.000  0.010  0.013
    5  0.005  0.000  0.010  0.014
    6  0.003  0.000  0.010  0.013
    7  0.003  0.000  0.010  0.013
    8  0.003  0.000  0.010  0.013
    9  0.004  0.000  0.002  0.006
   10  0.003  0.001  0.019  0.022
   11  0.004  0.001  0.022  0.026
   12  0.003  0.001  0.019  0.022
   13  0.004  0.001  0.022  0.026
   14  0.004  0.001  0.022  0.026
   15  0.002  0.000  0.028  0.030
   16  0.003  0.001  0.019  0.022
   17  0.002  0.000  0.028  0.030
   18  0.002  0.000  0.028  0.030
   19  0.006  0.001  0.018  0.025
   20  0.004  0.001  0.051  0.056
   21  0.004  0.001  0.051  0.056
   22  0.004  0.000  0.031  0.035
   23  0.004  0.001  0.051  0.056
   24  0.004  0.000  0.031  0.035
   25  0.006  0.001  0.018  0.025
   26  0.006  0.001  0.018  0.025
   27  0.004  0.000  0.031  0.035
   28  0.001  0.000  0.006  0.007
   29  0.003  0.000  0.010  0.013
   30  0.003  0.000  0.010  0.013
   31  0.003  0.000  0.010  0.013
   32  0.003  0.000  0.010  0.013
   33  0.003  0.000  0.010  0.013
   34  0.003  0.000  0.010  0.013
   35  0.005  0.000  0.000  0.005
   36  0.006  0.001  0.009  0.016
   37  0.000  0.000  0.000  0.000
   38  0.000  0.001  0.000  0.001
tot    0.122  0.014  0.666  0.802
 
band    15 # energy   -4.96391133 # occ.  2.00000000
 
ion      s      p      d    tot
    1  0.004  0.001  0.003  0.008
    2  0.000  0.000  0.005  0.005
    3  0.000  0.000  0.005  0.005
    4  0.000  0.000  0.005  0.005
    5  0.001  0.001  0.014  0.015
    6  0.000  0.000  0.005  0.005
    7  0.000  0.000  0.005  0.005
    8  0.000  0.000  0.005  0.005
    9  0.000  0.000  0.000  0.000
   10  0.010  0.001  0.023  0.034
   11  0.007  0.000  0.081  0.089
   12  0.010  0.001  0.023  0.034
   13  0.007  0.000  0.081  0.089
   14  0.007  0.000  0.081  0.089
   15  0.003  0.001  0.030  0.033
   16  0.010  0.001  0.023  0.034
   17  0.003  0.001  0.030  0.033
   18  0.003  0.001  0.030  0.033
   19  0.005  0.000  0.021  0.026
   20  0.001  0.001  0.025  0.028
   21  0.001  0.001  0.025  0.027
   22  0.002  0.000  0.031  0.033
   23  0.001  0.001  0.025  0.027
   24  0.002  0.000  0.030  0.032
   25  0.005  0.000  0.020  0.026
   26  0.005  0.000  0.021  0.026
   27  0.002  0.000  0.031  0.033
   28  0.001  0.000  0.001  0.003
   29  0.000  0.000  0.003  0.004
   30  0.000  0.000  0.003  0.004
   31  0.000  0.000  0.003  0.004
   32  0.000  0.000  0.003  0.004
   33  0.000  0.000  0.003  0.004
   34  0.000  0.000  0.003  0.004
   35  0.001  0.000  0.005  0.006
   36  0.002  0.000  0.006  0.008
   37  0.000  0.001  0.000  0.001
   38  0.000  0.001  0.000  0.001
tot    0.097  0.015  0.710  0.822
 
band    16 # energy   -4.93618825 # occ.  2.00000000
 
ion      s      p      d    tot
    1  0.000  0.000  0.018  0.018
    2  0.003  0.000  0.006  0.009
    3  0.000  0.000  0.010  0.010
    4  0.003  0.000  0.006  0.009
    5  0.000  0.000  0.010  0.010
    6  0.002  0.001  0.007  0.010
    7  0.000  0.000  0.010  0.010
    8  0.002  0.001  0.007  0.010
    9  0.000  0.000  0.005  0.006
   10  0.000  0.000  0.060  0.060
   11  0.000  0.000  0.035  0.035
   12  0.006  0.000  0.035  0.041
   13  0.000  0.000  0.035  0.035
   14  0.000  0.000  0.017  0.017
   15  0.007  0.000  0.026  0.033
   16  0.006  0.000  0.035  0.041
   17  0.007  0.000  0.026  0.033
   18  0.000  0.000  0.080  0.080
   19  0.002  0.000  0.032  0.033
   20  0.000  0.000  0.071  0.071
   21  0.006  0.000  0.023  0.029
   22  0.002  0.000  0.027  0.028
   23  0.006  0.000  0.022  0.029
   24  0.000  0.000  0.028  0.028
   25  0.000  0.000  0.027  0.027
   26  0.002  0.000  0.032  0.033
   27  0.002  0.000  0.027  0.028
   28  0.000  0.000  0.012  0.012
   29  0.001  0.000  0.006  0.007
   30  0.003  0.000  0.004  0.007
   31  0.001  0.000  0.006  0.007
   32  0.001  0.000  0.005  0.007
   33  0.003  0.000  0.004  0.007
   34  0.001  0.000  0.005  0.007
   35  0.000  0.000  0.004  0.005
   36  0.000  0.001  0.003  0.004
   37  0.000  0.000  0.000  0.000
   38  0.000  0.001  0.000  0.001
tot    0.065  0.010  0.765  0.839
 
band    17 # energy   -4.93614408 # occ.  2.00000000
 
ion      s      p      d    tot
    1  0.000  0.000  0.018  0.018
    2  0.001  0.000  0.010  0.011
    3  0.004  0.001  0.005  0.009
    4  0.001  0.000  0.010  0.011
    5  0.000  0.000  0.010  0.010
    6  0.001  0.000  0.008  0.009
    7  0.004  0.001  0.005  0.009
    8  0.001  0.000  0.008  0.009
    9  0.000  0.000  0.005  0.006
   10  0.009  0.000  0.027  0.036
   11  0.000  0.000  0.024  0.024
   12  0.002  0.000  0.051  0.053
   13  0.000  0.000  0.024  0.024
   14  0.000  0.000  0.040  0.040
   15  0.002  0.000  0.063  0.065
   16  0.002  0.000  0.051  0.053
   17  0.002  0.000  0.062  0.065
   18  0.009  0.000  0.007  0.017
   19  0.001  0.000  0.028  0.029
   20  0.008  0.000  0.006  0.014
   21  0.002  0.000  0.055  0.057
   22  0.000  0.000  0.027  0.028
   23  0.002  0.000  0.055  0.057
   24  0.002  0.000  0.027  0.029
   25  0.002  0.000  0.034  0.036
   26  0.001  0.000  0.028  0.029
   27  0.000  0.000  0.027  0.028
   28  0.000  0.000  0.012  0.012
   29  0.003  0.001  0.004  0.007
   30  0.000  0.000  0.007  0.007
   31  0.003  0.001  0.004  0.007
   32  0.002  0.000  0.004  0.006
   33  0.000  0.000  0.007  0.007
   34  0.002  0.000  0.004  0.006
   35  0.000  0.000  0.004  0.005
   36  0.000  0.001  0.003  0.004
   37  0.000  0.000  0.000  0.000
   38  0.000  0.001  0.000  0.001
tot    0.065  0.010  0.765  0.839
 
band    18 # energy   -4.93569730 # occ.  2.00000000
 
ion      s      p      d    tot
    1  0.000  0.000  0.012  0.013
    2  0.002  0.000  0.011  0.013
    3  0.002  0.000  0.012  0.014
    4  0.002  0.000  0.011  0.013
    5  0.001  0.000  0.000  0.001
    6  0.002  0.000  0.012  0.014
    7  0.002  0.000  0.012  0.014
    8  0.002  0.000  0.012  0.014
    9  0.009  0.000  0.014  0.023
   10  0.003  0.000  0.012  0.015
   11  0.000  0.000  0.018  0.019
   12  0.004  0.000  0.013  0.017
   13  0.000  0.000  0.018  0.019
   14  0.000  0.000  0.021  0.021
   15  0.000  0.000  0.029  0.029
   16  0.004  0.000  0.013  0.017
   17  0.000  0.000  0.029  0.029
   18  0.000  0.000  0.030  0.030
   19  0.001  0.001  0.007  0.008
   20  0.003  0.000  0.025  0.028
   21  0.002  0.000  0.025  0.028
   22  0.003  0.000  0.058  0.061
   23  0.002  0.000  0.025  0.028
   24  0.002  0.000  0.057  0.059
   25  0.001  0.001  0.005  0.007
   26  0.001  0.001  0.007  0.008
   27  0.003  0.000  0.058  0.061
   28  0.013  0.000  0.004  0.017
   29  0.006  0.000  0.017  0.023
   30  0.007  0.000  0.016  0.023
   31  0.006  0.000  0.017  0.023
   32  0.007  0.000  0.017  0.024
   33  0.007  0.000  0.016  0.023
   34  0.007  0.000  0.017  0.024
   35  0.007  0.000  0.038  0.045
   36  0.001  0.000  0.006  0.007
   37  0.000  0.000  0.000  0.000
   38  0.000  0.000  0.000  0.000
tot    0.113  0.007  0.691  0.812
 
band    19 # energy   -4.92643869 # occ.  2.00000000
 
ion      s      p      d    tot
    1  0.000  0.000  0.006  0.006
    2  0.003  0.000  0.006  0.010
    3  0.000  0.000  0.009  0.010
    4  0.003  0.000  0.006  0.010
    5  0.000  0.000  0.009  0.009
    6  0.002  0.000  0.007  0.009
    7  0.000  0.000  0.009  0.010
    8  0.002  0.000  0.007  0.009
    9  0.000  0.000  0.020  0.020
   10  0.003  0.000  0.024  0.027
   11  0.001  0.000  0.046  0.048
   12  0.001  0.000  0.027  0.027
   13  0.002  0.000  0.045  0.047
   14  0.006  0.000  0.009  0.015
   15  0.000  0.000  0.029  0.029
   16  0.001  0.000  0.027  0.027
   17  0.000  0.000  0.029  0.030
   18  0.000  0.000  0.040  0.041
   19  0.002  0.000  0.066  0.068
   20  0.000  0.000  0.048  0.048
   21  0.000  0.000  0.021  0.022
   22  0.003  0.000  0.057  0.061
   23  0.000  0.000  0.021  0.021
   24  0.012  0.000  0.023  0.035
   25  0.008  0.000  0.007  0.016
   26  0.002  0.000  0.065  0.067
   27  0.003  0.000  0.058  0.061
   28  0.000  0.000  0.004  0.005
   29  0.000  0.000  0.007  0.008
   30  0.002  0.000  0.002  0.005
   31  0.000  0.000  0.008  0.008
   32  0.001  0.001  0.008  0.009
   33  0.002  0.000  0.002  0.005
   34  0.001  0.001  0.007  0.009
   35  0.000  0.000  0.010  0.010
   36  0.000  0.000  0.003  0.003
   37  0.000  0.000  0.000  0.000
   38  0.000  0.000  0.000  0.000
tot    0.062  0.008  0.773  0.842
 
band    20 # energy   -4.92639155 # occ.  2.00000000
 
ion      s      p      d    tot
    1  0.000  0.000  0.006  0.006
    2  0.000  0.000  0.008  0.009
    3  0.003  0.000  0.006  0.009
    4  0.000  0.000  0.008  0.009
    5  0.000  0.000  0.009  0.009
    6  0.001  0.000  0.008  0.010
    7  0.003  0.000  0.006  0.009
    8  0.002  0.000  0.008  0.010
    9  0.000  0.000  0.020  0.020
   10  0.000  0.000  0.027  0.027
   11  0.005  0.000  0.021  0.026
   12  0.002  0.000  0.025  0.027
   13  0.005  0.000  0.022  0.026
   14  0.000  0.000  0.058  0.058
   15  0.000  0.000  0.037  0.037
   16  0.002  0.000  0.025  0.027
   17  0.000  0.000  0.036  0.037
   18  0.000  0.000  0.025  0.026
   19  0.006  0.000  0.026  0.032
   20  0.000  0.000  0.012  0.012
   21  0.000  0.000  0.039  0.039
   22  0.009  0.000  0.035  0.044
   23  0.000  0.000  0.040  0.040
   24  0.000  0.000  0.069  0.070
   25  0.000  0.000  0.085  0.085
   26  0.006  0.000  0.027  0.033
   27  0.009  0.000  0.034  0.044
   28  0.000  0.000  0.004  0.005
   29  0.002  0.001  0.004  0.006
   30  0.000  0.000  0.009  0.010
   31  0.002  0.001  0.004  0.006
   32  0.001  0.000  0.004  0.005
   33  0.000  0.000  0.009  0.010
   34  0.001  0.000  0.004  0.005
   35  0.000  0.000  0.010  0.010
   36  0.000  0.000  0.003  0.003
   37  0.000  0.000  0.000  0.000
   38  0.000  0.000  0.000  0.000
tot    0.062  0.008  0.773  0.842
 
band    21 # energy   -4.91191039 # occ.  2.00000000
 
ion      s      p      d    tot
    1  0.008  0.000  0.004  0.012
    2  0.000  0.000  0.012  0.012
    3  0.000  0.000  0.012  0.012
    4  0.000  0.000  0.012  0.012
    5  0.004  0.001  0.003  0.008
    6  0.000  0.000  0.012  0.012
    7  0.000  0.000  0.012  0.012
    8  0.000  0.000  0.012  0.012
    9  0.000  0.000  0.004  0.004
   10  0.001  0.000  0.033  0.034
   11  0.003  0.000  0.018  0.022
   12  0.001  0.000  0.033  0.034
   13  0.003  0.000  0.018  0.022
   14  0.003  0.000  0.018  0.022
   15  0.000  0.000  0.032  0.032
   16  0.001  0.000  0.033  0.034