PROCAR new format
# of k-points:   10         # of bands:  252         # of ions:   37

 k-point     1 :    0.00000000 0.00000000 0.00000000     weight = 0.01562500

band     1 # energy  -14.26922259 # occ.  2.00000000
 
ion      s      p      d    tot
    1  0.000  0.000  0.000  0.000
    2  0.000  0.000  0.000  0.000
    3  0.000  0.000  0.000  0.000
    4  0.000  0.000  0.000  0.000
    5  0.000  0.000  0.000  0.000
    6  0.000  0.000  0.000  0.000
    7  0.000  0.000  0.000  0.000
    8  0.000  0.000  0.000  0.000
    9  0.000  0.000  0.000  0.000
   10  0.000  0.000  0.000  0.000
   11  0.000  0.000  0.000  0.000
   12  0.000  0.000  0.000  0.000
   13  0.000  0.000  0.000  0.000
   14  0.000  0.000  0.000  0.000
   15  0.000  0.000  0.000  0.000
   16  0.000  0.000  0.000  0.000
   17  0.000  0.000  0.000  0.000
   18  0.000  0.000  0.000  0.000
   19  0.000  0.000  0.000  0.000
   20  0.000  0.000  0.000  0.001
   21  0.000  0.000  0.000  0.001
   22  0.000  0.000  0.000  0.000
   23  0.000  0.000  0.000  0.001
   24  0.000  0.000  0.000  0.000
   25  0.000  0.000  0.000  0.000
   26  0.000  0.000  0.000  0.000
   27  0.000  0.000  0.000  0.000
   28  0.000  0.000  0.000  0.000
   29  0.000  0.000  0.000  0.000
   30  0.000  0.000  0.000  0.000
   31  0.000  0.000  0.000  0.000
   32  0.000  0.000  0.000  0.000
   33  0.000  0.000  0.000  0.000
   34  0.000  0.000  0.000  0.000
   35  0.000  0.000  0.000  0.000
   36  0.089  0.071  0.189  0.350
   37  0.596  0.033  0.000  0.629
tot    0.686  0.105  0.191  0.982
 
band     2 # energy   -8.11218977 # occ.  2.00000000
 
ion      s      p      d    tot
    1  0.006  0.001  0.000  0.007
    2  0.006  0.000  0.000  0.006
    3  0.006  0.000  0.000  0.006
    4  0.006  0.000  0.000  0.006
    5  0.006  0.001  0.000  0.007
    6  0.006  0.000  0.000  0.006
    7  0.006  0.000  0.000  0.006
    8  0.006  0.000  0.000  0.006
    9  0.006  0.000  0.000  0.006
   10  0.025  0.000  0.000  0.025
   11  0.026  0.000  0.000  0.026
   12  0.025  0.000  0.000  0.025
   13  0.026  0.000  0.000  0.026
   14  0.026  0.000  0.000  0.026
   15  0.025  0.000  0.000  0.025
   16  0.025  0.000  0.000  0.025
   17  0.025  0.000  0.000  0.025
   18  0.025  0.000  0.000  0.025
   19  0.024  0.000  0.000  0.024
   20  0.029  0.000  0.000  0.029
   21  0.028  0.000  0.000  0.029
   22  0.025  0.000  0.000  0.025
   23  0.028  0.000  0.000  0.029
   24  0.025  0.000  0.000  0.025
   25  0.024  0.000  0.000  0.024
   26  0.024  0.000  0.000  0.024
   27  0.025  0.000  0.000  0.025
   28  0.005  0.000  0.000  0.005
   29  0.006  0.001  0.000  0.006
   30  0.006  0.001  0.000  0.006
   31  0.006  0.001  0.000  0.006
   32  0.006  0.001  0.000  0.006
   33  0.006  0.001  0.000  0.006
   34  0.006  0.001  0.000  0.006
   35  0.005  0.000  0.000  0.006
   36  0.008  0.002  0.000  0.011
   37  0.002  0.000  0.000  0.002
tot    0.567  0.013  0.004  0.584
 
band     3 # energy   -6.95172431 # occ.  2.00000000
 
ion      s      p      d    tot
    1  0.017  0.000  0.001  0.018
    2  0.017  0.000  0.001  0.018
    3  0.017  0.000  0.001  0.018
    4  0.017  0.000  0.001  0.018
    5  0.016  0.000  0.001  0.018
    6  0.017  0.000  0.001  0.018
    7  0.017  0.000  0.001  0.018
    8  0.017  0.000  0.001  0.018
    9  0.017  0.001  0.001  0.018
   10  0.012  0.001  0.002  0.016
   11  0.011  0.001  0.003  0.015
   12  0.012  0.001  0.002  0.016
   13  0.011  0.001  0.003  0.015
   14  0.011  0.001  0.003  0.015
   15  0.012  0.001  0.002  0.016
   16  0.012  0.001  0.002  0.016
   17  0.012  0.001  0.002  0.016
   18  0.012  0.001  0.002  0.016
   19  0.011  0.001  0.003  0.015
   20  0.014  0.002  0.002  0.018
   21  0.014  0.002  0.002  0.018
   22  0.011  0.001  0.003  0.015
   23  0.014  0.002  0.002  0.018
   24  0.011  0.001  0.003  0.015
   25  0.011  0.001  0.003  0.015
   26  0.011  0.001  0.003  0.015
   27  0.011  0.001  0.003  0.015
   28  0.013  0.000  0.001  0.014
   29  0.015  0.001  0.001  0.016
   30  0.015  0.001  0.001  0.016
   31  0.015  0.001  0.001  0.016
   32  0.015  0.001  0.001  0.016
   33  0.015  0.001  0.001  0.016
   34  0.015  0.001  0.001  0.016
   35  0.013  0.000  0.001  0.014
   36  0.019  0.003  0.004  0.026
   37  0.002  0.000  0.000  0.002
tot    0.500  0.035  0.066  0.601
 
band     4 # energy   -6.05909412 # occ.  2.00000000
 
ion      s      p      d    tot
    1  0.001  0.000  0.002  0.003
    2  0.001  0.000  0.002  0.004
    3  0.001  0.000  0.002  0.004
    4  0.001  0.000  0.002  0.004
    5  0.000  0.000  0.000  0.001
    6  0.001  0.000  0.002  0.004
    7  0.001  0.000  0.002  0.004
    8  0.001  0.000  0.002  0.004
    9  0.010  0.001  0.000  0.011
   10  0.005  0.000  0.013  0.018
   11  0.002  0.002  0.006  0.010
   12  0.005  0.000  0.013  0.018
   13  0.002  0.002  0.006  0.010
   14  0.002  0.002  0.006  0.010
   15  0.011  0.001  0.002  0.015
   16  0.005  0.000  0.013  0.018
   17  0.011  0.001  0.002  0.015
   18  0.011  0.001  0.002  0.015
   19  0.001  0.001  0.022  0.024
   20  0.031  0.002  0.031  0.064
   21  0.031  0.002  0.031  0.064
   22  0.006  0.002  0.008  0.016
   23  0.031  0.002  0.031  0.064
   24  0.006  0.002  0.008  0.016
   25  0.001  0.001  0.022  0.023
   26  0.001  0.001  0.022  0.024
   27  0.006  0.002  0.008  0.016
   28  0.012  0.000  0.003  0.015
   29  0.010  0.000  0.009  0.019
   30  0.010  0.000  0.009  0.019
   31  0.010  0.000  0.009  0.019
   32  0.010  0.000  0.009  0.019
   33  0.010  0.000  0.009  0.019
   34  0.010  0.000  0.009  0.019
   35  0.024  0.001  0.004  0.029
   36  0.001  0.006  0.057  0.065
   37  0.006  0.014  0.000  0.019
tot    0.291  0.046  0.377  0.713
 
band     5 # energy   -5.99768258 # occ.  2.00000000
 
ion      s      p      d    tot
    1  0.000  0.001  0.008  0.008
    2  0.003  0.001  0.002  0.006
    3  0.000  0.000  0.002  0.003
    4  0.003  0.001  0.002  0.006
    5  0.000  0.001  0.004  0.005
    6  0.005  0.001  0.003  0.008
    7  0.000  0.000  0.002  0.003
    8  0.005  0.001  0.003  0.008
    9  0.000  0.000  0.001  0.001
   10  0.038  0.002  0.006  0.046
   11  0.010  0.003  0.017  0.030
   12  0.010  0.001  0.023  0.034
   13  0.010  0.003  0.017  0.030
   14  0.039  0.001  0.011  0.050
   15  0.000  0.002  0.007  0.009
   16  0.009  0.001  0.024  0.034
   17  0.000  0.002  0.007  0.009
   18  0.000  0.000  0.009  0.010
   19  0.004  0.003  0.006  0.013
   20  0.071  0.001  0.012  0.084
   21  0.018  0.002  0.032  0.051
   22  0.003  0.001  0.020  0.024
   23  0.018  0.002  0.032  0.051
   24  0.012  0.001  0.005  0.019
   25  0.016  0.000  0.014  0.029
   26  0.004  0.003  0.006  0.013
   27  0.003  0.001  0.020  0.024
   28  0.000  0.000  0.001  0.002
   29  0.006  0.001  0.005  0.013
   30  0.002  0.001  0.003  0.006
   31  0.006  0.001  0.005  0.013
   32  0.001  0.000  0.004  0.005
   33  0.002  0.001  0.003  0.006
   34  0.001  0.000  0.004  0.005
   35  0.000  0.000  0.003  0.003
   36  0.000  0.002  0.034  0.036
   37  0.000  0.003  0.000  0.003
tot    0.298  0.045  0.358  0.701
 
band     6 # energy   -5.99761404 # occ.  2.00000000
 
ion      s      p      d    tot
    1  0.000  0.001  0.008  0.008
    2  0.002  0.001  0.003  0.006
    3  0.005  0.001  0.002  0.008
    4  0.002  0.001  0.003  0.006
    5  0.000  0.001  0.004  0.005
    6  0.001  0.000  0.002  0.003
    7  0.005  0.001  0.002  0.008
    8  0.001  0.000  0.002  0.003
    9  0.000  0.000  0.001  0.001
   10  0.000  0.000  0.030  0.030
   11  0.029  0.001  0.013  0.044
   12  0.028  0.002  0.012  0.042
   13  0.029  0.001  0.013  0.044
   14  0.000  0.004  0.019  0.023
   15  0.000  0.001  0.008  0.009
   16  0.029  0.002  0.011  0.042
   17  0.000  0.001  0.008  0.009
   18  0.000  0.003  0.006  0.008
   19  0.012  0.001  0.011  0.024
   20  0.000  0.002  0.039  0.041
   21  0.053  0.001  0.019  0.073
   22  0.009  0.001  0.010  0.020
   23  0.053  0.001  0.019  0.073
   24  0.000  0.001  0.024  0.025
   25  0.000  0.004  0.003  0.008
   26  0.012  0.001  0.011  0.024
   27  0.009  0.001  0.010  0.020
   28  0.000  0.000  0.001  0.002
   29  0.000  0.000  0.003  0.003
   30  0.004  0.001  0.005  0.010
   31  0.000  0.000  0.003  0.003
   32  0.005  0.001  0.004  0.011
   33  0.004  0.001  0.005  0.010
   34  0.005  0.001  0.004  0.011
   35  0.000  0.000  0.003  0.003
   36  0.000  0.002  0.034  0.036
   37  0.000  0.003  0.000  0.003
tot    0.298  0.045  0.358  0.701
 
band     7 # energy   -5.98846283 # occ.  2.00000000
 
ion      s      p      d    tot
    1  0.012  0.000  0.001  0.013
    2  0.005  0.000  0.005  0.010
    3  0.005  0.000  0.005  0.010
    4  0.005  0.000  0.005  0.010
    5  0.011  0.000  0.003  0.014
    6  0.005  0.000  0.005  0.010
    7  0.005  0.000  0.005  0.010
    8  0.005  0.000  0.005  0.010
    9  0.000  0.001  0.006  0.007
   10  0.000  0.001  0.012  0.012
   11  0.002  0.001  0.004  0.007
   12  0.000  0.001  0.012  0.012
   13  0.002  0.001  0.004  0.007
   14  0.002  0.001  0.004  0.007
   15  0.015  0.002  0.003  0.020
   16  0.000  0.001  0.012  0.012
   17  0.015  0.002  0.003  0.020
   18  0.015  0.002  0.003  0.020
   19  0.010  0.001  0.014  0.024
   20  0.002  0.001  0.023  0.026
   21  0.002  0.001  0.023  0.026
   22  0.018  0.002  0.007  0.027
   23  0.002  0.001  0.023  0.026
   24  0.018  0.002  0.007  0.027
   25  0.010  0.001  0.014  0.024
   26  0.010  0.001  0.014  0.024
   27  0.018  0.002  0.007  0.027
   28  0.004  0.000  0.013  0.017
   29  0.013  0.001  0.014  0.027
   30  0.013  0.001  0.014  0.027
   31  0.013  0.001  0.014  0.027
   32  0.013  0.001  0.014  0.027
   33  0.013  0.001  0.014  0.027
   34  0.013  0.001  0.014  0.027
   35  0.004  0.000  0.010  0.013
   36  0.042  0.002  0.025  0.068
   37  0.001  0.000  0.000  0.001
tot    0.321  0.030  0.359  0.709
 
band     8 # energy   -5.94294370 # occ.  2.00000000
 
ion      s      p      d    tot
    1  0.021  0.000  0.017  0.037
    2  0.015  0.000  0.017  0.032
    3  0.015  0.000  0.017  0.032
    4  0.015  0.000  0.017  0.032
    5  0.007  0.000  0.019  0.027
    6  0.015  0.000  0.017  0.032
    7  0.015  0.000  0.017  0.032
    8  0.015  0.000  0.017  0.032
    9  0.021  0.000  0.013  0.034
   10  0.003  0.000  0.028  0.032
   11  0.020  0.001  0.020  0.041
   12  0.003  0.000  0.028  0.032
   13  0.020  0.001  0.020  0.041
   14  0.020  0.001  0.020  0.041
   15  0.004  0.000  0.028  0.032
   16  0.003  0.000  0.028  0.032
   17  0.004  0.000  0.028  0.032
   18  0.004  0.000  0.028  0.032
   19  0.007  0.000  0.006  0.013
   20  0.000  0.001  0.014  0.015
   21  0.000  0.001  0.014  0.015
   22  0.000  0.000  0.011  0.011
   23  0.000  0.001  0.014  0.015
   24  0.000  0.000  0.011  0.011
   25  0.007  0.000  0.006  0.013
   26  0.007  0.000  0.006  0.013
   27  0.000  0.000  0.011  0.011
   28  0.001  0.000  0.001  0.002
   29  0.000  0.000  0.001  0.002
   30  0.000  0.000  0.001  0.002
   31  0.000  0.000  0.001  0.002
   32  0.000  0.000  0.001  0.002
   33  0.000  0.000  0.001  0.002
   34  0.000  0.000  0.001  0.002
   35  0.000  0.000  0.000  0.001
   36  0.001  0.000  0.004  0.005
   37  0.000  0.000  0.000  0.000
tot    0.246  0.009  0.487  0.742
 
band     9 # energy   -5.90863389 # occ.  2.00000000
 
ion      s      p      d    tot
    1  0.000  0.001  0.002  0.003
    2  0.004  0.001  0.003  0.008
    3  0.000  0.000  0.003  0.004
    4  0.005  0.001  0.003  0.008
    5  0.000  0.000  0.005  0.005
    6  0.007  0.001  0.004  0.012
    7  0.000  0.000  0.003  0.004
    8  0.007  0.001  0.004  0.012
    9  0.000  0.001  0.010  0.011
   10  0.000  0.004  0.003  0.007
   11  0.010  0.001  0.011  0.023
   12  0.013  0.001  0.012  0.026
   13  0.010  0.001  0.012  0.023
   14  0.000  0.001  0.027  0.028
   15  0.046  0.001  0.014  0.062
   16  0.013  0.001  0.013  0.027
   17  0.045  0.001  0.015  0.061
   18  0.000  0.001  0.037  0.039
   19  0.028  0.002  0.011  0.041
   20  0.000  0.003  0.008  0.011
   21  0.000  0.001  0.013  0.014
   22  0.033  0.001  0.014  0.048
   23  0.000  0.001  0.013  0.014
   24  0.000  0.004  0.020  0.024
   25  0.000  0.000  0.038  0.038
   26  0.028  0.002  0.012  0.041
   27  0.033  0.001  0.014  0.048
   28  0.000  0.000  0.006  0.007
   29  0.005  0.001  0.003  0.009
   30  0.003  0.001  0.003  0.007
   31  0.005  0.001  0.003  0.009
   32  0.000  0.000  0.002  0.002
   33  0.003  0.001  0.003  0.007
   34  0.000  0.000  0.002  0.002
   35  0.000  0.001  0.005  0.006
   36  0.000  0.000  0.001  0.002
   37  0.000  0.000  0.000  0.000
tot    0.301  0.042  0.352  0.694
 
band    10 # energy   -5.90860082 # occ.  2.00000000
 
ion      s      p      d    tot
    1  0.000  0.001  0.002  0.003
    2  0.003  0.001  0.005  0.008
    3  0.008  0.001  0.004  0.013
    4  0.003  0.001  0.005  0.008
    5  0.000  0.000  0.005  0.006
    6  0.001  0.000  0.002  0.003
    7  0.008  0.001  0.004  0.013
    8  0.001  0.000  0.002  0.003
    9  0.000  0.001  0.010  0.011
   10  0.025  0.000  0.015  0.040
   11  0.006  0.001  0.024  0.031
   12  0.002  0.003  0.006  0.011
   13  0.006  0.001  0.024  0.031
   14  0.009  0.002  0.003  0.014
   15  0.015  0.002  0.028  0.045
   16  0.001  0.003  0.006  0.010
   17  0.016  0.002  0.028  0.045
   18  0.058  0.001  0.010  0.070
   19  0.013  0.000  0.029  0.043
   20  0.000  0.001  0.019  0.021
   21  0.000  0.002  0.008  0.010
   22  0.015  0.003  0.016  0.034
   23  0.000  0.002  0.008  0.010
   24  0.035  0.001  0.016  0.052
   25  0.029  0.002  0.002  0.033
   26  0.014  0.000  0.029  0.043
   27  0.015  0.003  0.016  0.033
   28  0.000  0.000  0.006  0.007
   29  0.000  0.000  0.003  0.004
   30  0.002  0.001  0.002  0.004
   31  0.000  0.000  0.003  0.004
   32  0.006  0.001  0.003  0.010
   33  0.002  0.001  0.002  0.004
   34  0.006  0.001  0.003  0.010
   35  0.000  0.001  0.005  0.006
   36  0.000  0.000  0.001  0.002
   37  0.000  0.000  0.000  0.000
tot    0.300  0.042  0.352  0.694
 
band    11 # energy   -5.90826300 # occ.  2.00000000
 
ion      s      p      d    tot
    1  0.005  0.001  0.003  0.009
    2  0.001  0.000  0.005  0.007
    3  0.000  0.001  0.006  0.007
    4  0.001  0.000  0.005  0.007
    5  0.018  0.001  0.000  0.019
    6  0.001  0.001  0.007  0.009
    7  0.000  0.001  0.006  0.007
    8  0.001  0.001  0.007  0.009
    9  0.000  0.000  0.003  0.004
   10  0.022  0.003  0.001  0.026
   11  0.011  0.001  0.025  0.036
   12  0.032  0.003  0.001  0.036
   13  0.011  0.001  0.025  0.036
   14  0.017  0.000  0.029  0.047
   15  0.000  0.001  0.023  0.024
   16  0.032  0.003  0.001  0.036
   17  0.000  0.001  0.023  0.024
   18  0.003  0.001  0.018  0.022
   19  0.014  0.002  0.009  0.025
   20  0.005  0.002  0.012  0.020
   21  0.006  0.002  0.019  0.027
   22  0.010  0.000  0.026  0.036
   23  0.006  0.002  0.019  0.027
   24  0.022  0.000  0.019  0.041
   25  0.027  0.002  0.009  0.038
   26  0.014  0.002  0.009  0.025
   27  0.010  0.000  0.026  0.036
   28  0.015  0.001  0.000  0.017
   29  0.001  0.000  0.004  0.005
   30  0.001  0.000  0.005  0.007
   31  0.001  0.000  0.004  0.005
   32  0.000  0.000  0.005  0.006
   33  0.001  0.000  0.005  0.007
   34  0.000  0.000  0.005  0.006
   35  0.002  0.001  0.005  0.008
   36  0.000  0.000  0.001  0.001
   37  0.000  0.000  0.000  0.000
tot    0.293  0.037  0.369  0.700
 
band    12 # energy   -5.51259418 # occ.  2.00000000
 
ion      s      p      d    tot
    1  0.002  0.000  0.000  0.003
    2  0.000  0.001  0.007  0.008
    3  0.000  0.001  0.007  0.008
    4  0.000  0.001  0.007  0.008
    5  0.016  0.002  0.000  0.018
    6  0.000  0.001  0.007  0.008
    7  0.000  0.001  0.007  0.008
    8  0.000  0.001  0.007  0.008
    9  0.007  0.001  0.002  0.010
   10  0.000  0.000  0.037  0.038
   11  0.010  0.002  0.002  0.014
   12  0.000  0.000  0.037  0.038
   13  0.010  0.002  0.002  0.014
   14  0.010  0.002  0.002  0.014
   15  0.015  0.001  0.024  0.041
   16  0.000  0.000  0.037  0.038
   17  0.015  0.001  0.024  0.041
   18  0.015  0.001  0.025  0.041
   19  0.011  0.001  0.017  0.029
   20  0.003  0.003  0.023  0.030
   21  0.003  0.003  0.023  0.030
   22  0.000  0.000  0.035  0.036
   23  0.003  0.003  0.023  0.030
   24  0.000  0.000  0.035  0.035
   25  0.011  0.001  0.017  0.029
   26  0.011  0.001  0.017  0.029
   27  0.000  0.000  0.035  0.036
   28  0.003  0.001  0.002  0.006
   29  0.000  0.001  0.007  0.007
   30  0.000  0.001  0.007  0.007
   31  0.000  0.001  0.007  0.007
   32  0.000  0.001  0.007  0.007
   33  0.000  0.001  0.007  0.007
   34  0.000  0.001  0.007  0.007
   35  0.002  0.000  0.000  0.002
   36  0.029  0.006  0.005  0.040
   37  0.006  0.009  0.000  0.015
tot    0.184  0.051  0.511  0.745
 
band    13 # energy   -5.50370879 # occ.  2.00000000
 
ion      s      p      d    tot
    1  0.000  0.000  0.005  0.005
    2  0.002  0.001  0.005  0.008
    3  0.011  0.002  0.004  0.017
    4  0.002  0.001  0.005  0.008
    5  0.000  0.002  0.010  0.011
    6  0.003  0.001  0.004  0.008
    7  0.011  0.002  0.004  0.017
    8  0.003  0.001  0.004  0.008
    9  0.000  0.000  0.009  0.009
   10  0.000  0.001  0.047  0.048
   11  0.021  0.001  0.018  0.041
   12  0.007  0.001  0.019  0.027
   13  0.021  0.001  0.018  0.041
   14  0.000  0.000  0.049  0.049
   15  0.003  0.000  0.019  0.022
   16  0.007  0.001  0.019  0.027
   17  0.003  0.000  0.019  0.022
   18  0.000  0.002  0.012  0.014
   19  0.001  0.000  0.015  0.016
   20  0.000  0.000  0.074  0.074
   21  0.012  0.001  0.023  0.036
   22  0.004  0.001  0.017  0.023
   23  0.012  0.001  0.023  0.036
   24  0.000  0.000  0.030  0.030
   25  0.000  0.001  0.008  0.009
   26  0.001  0.000  0.015  0.016
   27  0.004  0.001  0.017  0.023
   28  0.000  0.000  0.005  0.005
   29  0.004  0.001  0.004  0.009
   30  0.006  0.001  0.007  0.014
   31  0.004  0.001  0.004  0.009
   32  0.000  0.000  0.004  0.004
   33  0.006  0.001  0.007  0.014
   34  0.000  0.000  0.004  0.004
   35  0.000  0.000  0.002  0.002
   36  0.000  0.001  0.043  0.045
   37  0.000  0.006  0.000  0.006
tot    0.148  0.035  0.572  0.755
 
band    14 # energy   -5.50366289 # occ.  2.00000000
 
ion      s      p      d    tot
    1  0.000  0.000  0.005  0.005
    2  0.009  0.001  0.004  0.014
    3  0.000  0.000  0.004  0.005
    4  0.009  0.001  0.004  0.014
    5  0.000  0.002  0.010  0.011
    6  0.007  0.001  0.005  0.014
    7  0.000  0.000  0.004  0.005
    8  0.007  0.001  0.005  0.014
    9  0.000  0.000  0.009  0.009
   10  0.009  0.001  0.009  0.020
   11  0.007  0.000  0.039  0.046
   12  0.002  0.001  0.038  0.041
   13  0.007  0.000  0.039  0.046
   14  0.029  0.001  0.008  0.038
   15  0.001  0.001  0.015  0.017
   16  0.002  0.001  0.038  0.041
   17  0.001  0.001  0.015  0.017
   18  0.003  0.000  0.021  0.024
   19  0.000  0.000  0.011  0.011
   20  0.016  0.002  0.005  0.023
   21  0.004  0.000  0.057  0.062
   22  0.001  0.001  0.025  0.027
   23  0.004  0.000  0.057  0.062
   24  0.005  0.002  0.013  0.020
   25  0.001  0.000  0.018  0.019
   26  0.000  0.000  0.011  0.011
   27  0.001  0.001  0.025  0.027
   28  0.000  0.000  0.005  0.005
   29  0.003  0.001  0.006  0.009
   30  0.001  0.000  0.003  0.004
   31  0.003  0.001  0.006  0.009
   32  0.006  0.001  0.006  0.014
   33  0.001  0.000  0.003  0.004
   34  0.006  0.001  0.006  0.014
   35  0.000  0.000  0.002  0.002
   36  0.000  0.001  0.043  0.045
   37  0.000  0.006  0.000  0.006
tot    0.148  0.035  0.572  0.755
 
band    15 # energy   -5.46706919 # occ.  2.00000000
 
ion      s      p      d    tot
    1  0.013  0.002  0.003  0.018
    2  0.000  0.001  0.008  0.008
    3  0.000  0.001  0.008  0.008
    4  0.000  0.001  0.008  0.008
    5  0.000  0.000  0.002  0.002
    6  0.000  0.001  0.008  0.008
    7  0.000  0.001  0.008  0.008
    8  0.000  0.001  0.008  0.008
    9  0.016  0.001  0.000  0.018
   10  0.011  0.001  0.014  0.027
   11  0.002  0.000  0.045  0.047
   12  0.011  0.001  0.014  0.027
   13  0.002  0.000  0.045  0.047
   14  0.002  0.000  0.044  0.047
   15  0.004  0.001  0.020  0.025
   16  0.011  0.001  0.014  0.027
   17  0.004  0.001  0.020  0.025
   18  0.004  0.001  0.020  0.025
   19  0.003  0.001  0.014  0.018
   20  0.001  0.000  0.049  0.050
   21  0.001  0.000  0.049  0.050
   22  0.011  0.001  0.019  0.031
   23  0.001  0.000  0.049  0.050
   24  0.011  0.001  0.019  0.031
   25  0.002  0.001  0.014  0.018
   26  0.003  0.001  0.014  0.018
   27  0.011  0.001  0.019  0.031
   28  0.016  0.001  0.000  0.017
   29  0.000  0.000  0.007  0.007
   30  0.000  0.000  0.007  0.007
   31  0.000  0.000  0.007  0.007
   32  0.000  0.000  0.007  0.007
   33  0.000  0.000  0.007  0.007
   34  0.000  0.000  0.007  0.007
   35  0.003  0.001  0.005  0.009
   36  0.000  0.000  0.006  0.006
   37  0.000  0.001  0.000  0.002
tot    0.147  0.028  0.582  0.757
 
band    16 # energy   -5.42570681 # occ.  2.00000000
 
ion      s      p      d    tot
    1  0.000  0.001  0.013  0.014
    2  0.001  0.001  0.005  0.007
    3  0.009  0.001  0.004  0.015
    4  0.002  0.001  0.005  0.007
    5  0.000  0.000  0.006  0.006
    6  0.004  0.001  0.004  0.009
    7  0.009  0.001  0.004  0.015
    8  0.003  0.001  0.004  0.008
    9  0.000  0.001  0.005  0.006
   10  0.015  0.001  0.016  0.032
   11  0.000  0.001  0.016  0.017
   12  0.004  0.000  0.032  0.036
   13  0.000  0.001  0.016  0.017
   14  0.000  0.001  0.022  0.022
   15  0.004  0.001  0.045  0.049
   16  0.004  0.000  0.031  0.035
   17  0.003  0.001  0.047  0.051
   18  0.014  0.002  0.006  0.022
   19  0.005  0.001  0.049  0.055
   20  0.000  0.001  0.022  0.023
   21  0.000  0.001  0.023  0.024
   22  0.004  0.001  0.025  0.030
   23  0.000  0.001  0.023  0.024
   24  0.018  0.001  0.018  0.037
   25  0.020  0.002  0.005  0.026
   26  0.005  0.001  0.051  0.056
   27  0.005  0.001  0.024  0.030
   28  0.000  0.001  0.006  0.007
   29  0.003  0.001  0.004  0.008
   30  0.008  0.001  0.003  0.013
   31  0.003  0.001  0.004  0.008
   32  0.001  0.001  0.005  0.007
   33  0.008  0.001  0.003  0.013
   34  0.001  0.001  0.005  0.007
   35  0.000  0.001  0.009  0.010
   36  0.000  0.000  0.004  0.004
   37  0.000  0.000  0.000  0.000
tot    0.154  0.030  0.563  0.748
 
band    17 # energy   -5.42570511 # occ.  2.00000000
 
ion      s      p      d    tot
    1  0.000  0.001  0.013  0.014
    2  0.008  0.001  0.004  0.013
    3  0.000  0.000  0.005  0.005
    4  0.008  0.001  0.004  0.013
    5  0.000  0.000  0.006  0.006
    6  0.006  0.001  0.005  0.012
    7  0.000  0.000  0.005  0.005
    8  0.006  0.001  0.005  0.012
    9  0.000  0.001  0.005  0.006
   10  0.000  0.000  0.036  0.037
   11  0.000  0.001  0.020  0.020
   12  0.012  0.001  0.020  0.033
   13  0.000  0.001  0.020  0.021
   14  0.000  0.001  0.014  0.015
   15  0.010  0.002  0.020  0.032
   16  0.011  0.001  0.021  0.033
   17  0.011  0.002  0.018  0.031
   18  0.000  0.000  0.059  0.059
   19  0.015  0.001  0.021  0.037
   20  0.000  0.002  0.023  0.025
   21  0.000  0.001  0.023  0.023
   22  0.014  0.001  0.020  0.034
   23  0.000  0.001  0.023  0.024
   24  0.000  0.001  0.027  0.027
   25  0.000  0.000  0.065  0.065
   26  0.015  0.001  0.019  0.035
   27  0.013  0.001  0.021  0.034
   28  0.000  0.001  0.006  0.007
   29  0.005  0.001  0.004  0.010
   30  0.000  0.000  0.005  0.005
   31  0.005  0.001  0.004  0.010
   32  0.007  0.001  0.003  0.011
   33  0.000  0.000  0.005  0.005
   34  0.007  0.001  0.003  0.011
   35  0.000  0.001  0.009  0.010
   36  0.000  0.000  0.004  0.004
   37  0.000  0.000  0.000  0.000
tot    0.154  0.030  0.563  0.748
 
band    18 # energy   -5.14037673 # occ.  2.00000000
 
ion      s      p      d    tot
    1  0.005  0.000  0.002  0.007
    2  0.000  0.000  0.005  0.006
    3  0.000  0.000  0.005  0.006
    4  0.000  0.000  0.005  0.006
    5  0.003  0.001  0.004  0.008
    6  0.000  0.000  0.005  0.006
    7  0.000  0.000  0.005  0.006
    8  0.000  0.000  0.005  0.006
    9  0.011  0.001  0.000  0.012
   10  0.000  0.000  0.011  0.011
   11  0.000  0.001  0.037  0.038
   12  0.000  0.000  0.011  0.011
   13  0.000  0.001  0.037  0.038
   14  0.000  0.001  0.037  0.038
   15  0.000  0.000  0.020  0.021
   16  0.000  0.000  0.011  0.011
   17  0.000  0.000  0.020  0.021
   18  0.000  0.000  0.020  0.021
   19  0.000  0.000  0.011  0.012
   20  0.002  0.000  0.043  0.045
   21  0.002  0.000  0.043  0.045
   22  0.001  0.001  0.037  0.038
   23  0.002  0.000  0.043  0.045
   24  0.001  0.001  0.037  0.038
   25  0.000  0.000  0.011  0.012
   26  0.000  0.000  0.011  0.012
   27  0.001  0.001  0.037  0.038
   28  0.000  0.000  0.005  0.005
   29  0.000  0.001  0.022  0.024
   30  0.000  0.001  0.022  0.024
   31  0.000  0.001  0.022  0.024
   32  0.000  0.001  0.022  0.024
   33  0.000  0.001  0.022  0.024
   34  0.000  0.001  0.022  0.024
   35  0.031  0.001  0.003  0.036
   36  0.002  0.000  0.060  0.062
   37  0.004  0.016  0.000  0.020
tot    0.067  0.034  0.721  0.822
 
band    19 # energy   -5.12053778 # occ.  2.00000000
 
ion      s      p      d    tot
    1  0.000  0.000  0.006  0.007
    2  0.000  0.000  0.006  0.006
    3  0.002  0.000  0.007  0.009
    4  0.000  0.000  0.006  0.006
    5  0.000  0.000  0.014  0.014
    6  0.003  0.000  0.004  0.008
    7  0.002  0.000  0.007  0.009
    8  0.003  0.000  0.004  0.008
    9  0.000  0.000  0.002  0.002
   10  0.000  0.000  0.026  0.027
   11  0.000  0.000  0.048  0.048
   12  0.000  0.000  0.010  0.011
   13  0.000  0.000  0.048  0.048
   14  0.000  0.000  0.041  0.041
   15  0.000  0.000  0.022  0.022
   16  0.000  0.000  0.010  0.011
   17  0.000  0.000  0.022  0.022
   18  0.001  0.000  0.029  0.030
   19  0.000  0.000  0.008  0.008
   20  0.000  0.000  0.102  0.103
   21  0.000  0.000  0.058  0.058
   22  0.000  0.000  0.043  0.044
   23  0.000  0.000  0.058  0.058
   24  0.002  0.000  0.020  0.022
   25  0.001  0.000  0.014  0.015
   26  0.000  0.000  0.008  0.008
   27  0.000  0.000  0.043  0.044
   28  0.000  0.000  0.000  0.000
   29  0.000  0.000  0.010  0.010
   30  0.000  0.000  0.005  0.006
   31  0.000  0.000  0.010  0.010
   32  0.000  0.000  0.006  0.007
   33  0.000  0.000  0.005  0.006
   34  0.000  0.000  0.006  0.007
   35  0.000  0.000  0.002  0.002
   36  0.000  0.000  0.096  0.096
   37  0.000  0.024  0.000  0.024
tot    0.017  0.030  0.808  0.855
 
band    20 # energy   -5.12049357 # occ.  2.00000000
 
ion      s      p      d    tot
    1  0.000  0.000  0.006  0.007
    2  0.004  0.000  0.006  0.009
    3  0.002  0.000  0.004  0.007
    4  0.004  0.000  0.006  0.009
    5  0.000  0.000  0.014  0.014
    6  0.000  0.000  0.007  0.008
    7  0.002  0.000  0.004  0.007
    8  0.000  0.000  0.007  0.008
    9  0.000  0.000  0.002  0.002
   10  0.000  0.000  0.005  0.005
   11  0.000  0.000  0.043  0.044
   12  0.000  0.000  0.021  0.022
   13  0.000  0.000  0.043  0.044
   14  0.000  0.000  0.050  0.050
   15  0.000  0.000  0.027  0.027
   16  0.000  0.000  0.021  0.021
   17  0.000  0.000  0.027  0.027
   18  0.000  0.000  0.019  0.019
   19  0.001  0.000  0.012  0.013
   20  0.000  0.000  0.043  0.043
   21  0.000  0.000  0.087  0.088
   22  0.001  0.000  0.028  0.029
   23  0.000  0.000  0.087  0.087
   24  0.000  0.000  0.051  0.051
   25  0.000  0.000  0.006  0.006
   26  0.001  0.000  0.012  0.013
   27  0.001  0.000  0.028  0.029
   28  0.000  0.000  0.000  0.000
   29  0.000  0.000  0.005  0.005
   30  0.000  0.000  0.009  0.009
   31  0.000  0.000  0.005  0.005
   32  0.000  0.000  0.008  0.008
   33  0.000  0.000  0.009  0.009
   34  0.000  0.000  0.008  0.008
   35  0.000  0.000  0.002  0.002
   36  0.000  0.000  0.096  0.096
   37  0.000  0.024  0.000  0.024
tot    0.017  0.030  0.808  0.855
 
band    21 # energy   -5.09194229 # occ.  2.00000000
 
ion      s      p      d    tot
    1  0.002  0.000  0.005  0.007
    2  0.000  0.000  0.015  0.015
    3  0.000  0.000  0.015  0.015
    4  0.000  0.000  0.015  0.015
    5  0.002  0.000  0.002  0.005
    6  0.000  0.000  0.015  0.016
    7  0.000  0.000  0.015  0.015
    8  0.000  0.000  0.015  0.016
    9  0.011  0.000  0.011  0.023
   10  0.001  0.000  0.018  0.019
   11  0.000  0.000  0.021  0.021
   12  0.001  0.000  0.018  0.019
   13  0.000  0.000  0.021  0.021
   14  0.000  0.000  0.021  0.021
   15  0.000  0.000  0.038  0.038
   16  0.001  0.000  0.018  0.019
   17  0.000  0.000  0.038  0.038
   18  0.000  0.000  0.038  0.038
   19  0.000  0.000  0.034  0.035
   20  0.000  0.001  0.045  0.046
   21  0.000  0.001  0.045  0.046
   22  0.001  0.000  0.029  0.030
   23  0.000  0.001  0.045  0.046
   24  0.001  0.000  0.029  0.030
   25  0.000  0.000  0.035  0.035
   26  0.000  0.000  0.034  0.035
   27  0.001  0.000  0.029  0.030
   28  0.012  0.000  0.008  0.020
   29  0.000  0.001  0.014  0.014
   30  0.000  0.001  0.014  0.014
   31  0.000  0.001  0.014  0.014
   32  0.000  0.001  0.014  0.014
   33  0.000  0.001  0.014  0.014
   34  0.000  0.001  0.014  0.014
   35  0.000  0.000  0.004  0.004
   36  0.019  0.002  0.002  0.023