 vasp.6.2.0 18Jan21 (build Jun 12 2021 23:27:24) complex                        
  
 executed on             LinuxIFC date 2022.05.26  19:23:09
 running on   28 total cores
 distrk:  each k-point on   28 cores,    1 groups
 distr:  one band on NCORE=   1 cores,   28 groups


--------------------------------------------------------------------------------------------------------


 INCAR:
   ISMEAR = -5
   SIGMA = 0.1
   ISPIN = 1
   EDIFF = 1.d-5
   EDIFFG = -0.01
   NSW = 0
   NELM = 150
   ENCUT = 500
   ISIF = 2
   IBRION = 2
   LREAL = Auto
   ALGO = Fast
   ICHARG = 11
   LORBIT = 10
   LCHARG = .F.
   LWAVE = .F.

 POTCAR:    PAW_PBE Au 04Oct2007                  
 POTCAR:    PAW_PBE Mo 08Apr2002                  
 POTCAR:    PAW_PBE N 08Apr2002                   
 -----------------------------------------------------------------------------
|                                                                             |
|           W    W    AA    RRRRR   N    N  II  N    N   GGGG   !!!           |
|           W    W   A  A   R    R  NN   N  II  NN   N  G    G  !!!           |
|           W    W  A    A  R    R  N N  N  II  N N  N  G       !!!           |
|           W WW W  AAAAAA  RRRRR   N  N N  II  N  N N  G  GGG   !            |
|           WW  WW  A    A  R   R   N   NN  II  N   NN  G    G                |
|           W    W  A    A  R    R  N    N  II  N    N   GGGG   !!!           |
|                                                                             |
|     For optimal performance we recommend to set                             |
|       NCORE = 2 up to number-of-cores-per-socket                            |
|     NCORE specifies how many cores store one orbital (NPAR=cpu/NCORE).      |
|     This setting can greatly improve the performance of VASP for DFT.       |
|     The default, NCORE=1 might be grossly inefficient on modern             |
|     multi-core architectures or massively parallel machines. Do your        |
|     own testing! More info at https://www.vasp.at/wiki/index.php/NCORE      |
|     Unfortunately you need to use the default for GW and RPA                |
|     calculations (for HF NCORE is supported but not extensively tested      |
|     yet).                                                                   |
|                                                                             |
 -----------------------------------------------------------------------------

 POTCAR:    PAW_PBE Au 04Oct2007                  
   VRHFIN =Au: s1d10                                                                                
   LEXCH  = PE                                                                                      
   EATOM  =   926.0867 eV,   68.0654 Ry                                                             
                                                                                                    
   TITEL  = PAW_PBE Au 04Oct2007                                                                    
   LULTRA =        F    use ultrasoft PP ?                                                          
   IUNSCR =        1    unscreen: 0-lin 1-nonlin 2-no                                               
   RPACOR =    2.330    partial core radius                                                         
   POMASS =  196.966; ZVAL   =   11.000    mass and valenz                                          
   RCORE  =    2.500    outmost cutoff radius                                                       
   RWIGS  =    2.840; RWIGS  =    1.503    wigner-seitz radius (au A)                               
   ENMAX  =  229.943; ENMIN  =  172.457 eV                                                          
   ICORE  =        3    local potential                                                             
   LCOR   =        T    correct aug charges                                                         
   LPAW   =        T    paw PP                                                                      
   EAUG   =  356.670                                                                                
   DEXC   =    0.000                                                                                
   RMAX   =    2.562    core radius for proj-oper                                                   
   RAUG   =    1.300    factor for augmentation sphere                                              
   RDEP   =    2.598    radius for radial grids                                                     
   RDEPT  =    2.193    core radius for aug-charge                                                  
                                                                                                    
   Atomic configuration                                                                             
   16 entries                                                                                       
     n  l   j            E        occ.                                                              
     1  0  0.50    -80748.5001   2.0000                                                             
     2  0  0.50    -14244.7466   2.0000                                                             
     2  1  1.50    -12310.9591   6.0000                                                             
     3  0  0.50     -3362.1768   2.0000                                                             
     3  1  1.50     -2801.5463   6.0000                                                             
     3  2  2.50     -2203.8206  10.0000                                                             
     4  0  0.50      -729.8168   2.0000                                                             
     4  1  1.50      -546.0527   6.0000                                                             
     4  2  2.50      -325.7302  10.0000                                                             
     4  3  3.50       -81.1472  14.0000                                                             
     5  0  0.50      -108.3201   2.0000                                                             
     5  1  1.50       -59.7479   6.0000                                                             
     5  2  2.50        -6.8783  10.0000                                                             
     6  0  0.50        -5.7602   1.0000                                                             
     6  1  1.50        -6.8029   0.0000                                                             
     5  3  2.50        -1.3606   0.0000                                                             
   Description                                                                                      
     l       E           TYP  RCUT    TYP  RCUT                                                     
     2     -6.8782861     23  2.500                                                                 
     2     -8.2388687     23  2.500                                                                 
     0     -5.7601759     23  2.500                                                                 
     0     -0.8493231     23  2.500                                                                 
     1     -2.7211652     23  2.500                                                                 
     1     27.2116520     23  2.500                                                                 
     3     -1.3605826     23  2.500                                                                 
  local pseudopotential read in
  partial core-charges read in
  partial kinetic energy density read in
  atomic valenz-charges read in
  non local Contribution for L=           2  read in
    real space projection operators read in
  non local Contribution for L=           2  read in
    real space projection operators read in
  non local Contribution for L=           0  read in
    real space projection operators read in
  non local Contribution for L=           0  read in
    real space projection operators read in
  non local Contribution for L=           1  read in
    real space projection operators read in
  non local Contribution for L=           1  read in
    real space projection operators read in
    PAW grid and wavefunctions read in
 
   number of l-projection  operators is LMAX  =           6
   number of lm-projection operators is LMMAX =          18
 
 POTCAR:    PAW_PBE Mo 08Apr2002                  
   VRHFIN =Mo: 4p5s4d                                                                               
   LEXCH  = PE                                                                                      
   EATOM  =   217.5176 eV,   15.9871 Ry                                                             
                                                                                                    
   TITEL  = PAW_PBE Mo 08Apr2002                                                                    
   LULTRA =        F    use ultrasoft PP ?                                                          
   IUNSCR =        1    unscreen: 0-lin 1-nonlin 2-no                                               
   RPACOR =    2.200    partial core radius                                                         
   POMASS =   95.940; ZVAL   =    6.000    mass and valenz                                          
   RCORE  =    2.750    outmost cutoff radius                                                       
   RWIGS  =    2.750; RWIGS  =    1.455    wigner-seitz radius (au A)                               
   ENMAX  =  224.584; ENMIN  =  168.438 eV                                                          
   RCLOC  =    2.111    cutoff for local pot                                                        
   LCOR   =        T    correct aug charges                                                         
   LPAW   =        T    paw PP                                                                      
   EAUG   =  345.278                                                                                
   DEXC   =    0.000                                                                                
   RMAX   =    2.821    core radius for proj-oper                                                   
   RAUG   =    1.300    factor for augmentation sphere                                              
   RDEP   =    2.815    radius for radial grids                                                     
   RDEPT  =    2.211    core radius for aug-charge                                                  
                                                                                                    
   Atomic configuration                                                                             
   12 entries                                                                                       
     n  l   j            E        occ.                                                              
     1  0  0.50    -19819.0341   2.0000                                                             
     2  0  0.50     -2799.0127   2.0000                                                             
     2  1  1.50     -2502.0276   6.0000                                                             
     3  0  0.50      -476.4448   2.0000                                                             
     3  1  1.50      -379.1496   6.0000                                                             
     3  2  2.50      -220.9367  10.0000                                                             
     4  0  0.50       -64.3378   2.0000                                                             
     4  1  1.50       -38.4773   6.0000                                                             
     4  2  2.50        -3.7535   5.0000                                                             
     5  0  0.50        -4.0862   1.0000                                                             
     5  1  0.50        -2.7701   0.0000                                                             
     4  3  2.50        -1.3606   0.0000                                                             
   Description                                                                                      
     l       E           TYP  RCUT    TYP  RCUT                                                     
     2     -3.7534765     23  2.500                                                                 
     2     -5.1140591     23  2.500                                                                 
     0     -4.0861560     23  2.600                                                                 
     0     13.6058260     23  2.600                                                                 
     1      5.4423304     23  2.750                                                                 
     1     27.2116520     23  2.750                                                                 
  local pseudopotential read in
  partial core-charges read in
  partial kinetic energy density read in
  atomic valenz-charges read in
  non local Contribution for L=           2  read in
    real space projection operators read in
  non local Contribution for L=           2  read in
    real space projection operators read in
  non local Contribution for L=           0  read in
    real space projection operators read in
  non local Contribution for L=           0  read in
    real space projection operators read in
  non local Contribution for L=           1  read in
    real space projection operators read in
  non local Contribution for L=           1  read in
    real space projection operators read in
    PAW grid and wavefunctions read in
 
   number of l-projection  operators is LMAX  =           6
   number of lm-projection operators is LMMAX =          18
 
 POTCAR:    PAW_PBE N 08Apr2002                   
   VRHFIN =N: s2p3                                                                                  
   LEXCH  = PE                                                                                      
   EATOM  =   264.5486 eV,   19.4438 Ry                                                             
                                                                                                    
   TITEL  = PAW_PBE N 08Apr2002                                                                     
   LULTRA =        F    use ultrasoft PP ?                                                          
   IUNSCR =        1    unscreen: 0-lin 1-nonlin 2-no                                               
   RPACOR =    1.200    partial core radius                                                         
   POMASS =   14.001; ZVAL   =    5.000    mass and valenz                                          
   RCORE  =    1.500    outmost cutoff radius                                                       
   RWIGS  =    1.400; RWIGS  =    0.741    wigner-seitz radius (au A)                               
   ENMAX  =  400.000; ENMIN  =  300.000 eV                                                          
   ICORE  =        2    local potential                                                             
   LCOR   =        T    correct aug charges                                                         
   LPAW   =        T    paw PP                                                                      
   EAUG   =  627.112                                                                                
   DEXC   =    0.000                                                                                
   RMAX   =    1.529    core radius for proj-oper                                                   
   RAUG   =    1.300    factor for augmentation sphere                                              
   RDEP   =    1.514    radius for radial grids                                                     
   RDEPT  =    1.338    core radius for aug-charge                                                  
                                                                                                    
   Atomic configuration                                                                             
    4 entries                                                                                       
     n  l   j            E        occ.                                                              
     1  0  0.50      -384.7179   2.0000                                                             
     2  0  0.50       -18.5828   2.0000                                                             
     2  1  0.50        -7.0898   3.0000                                                             
     3  2  1.50        -6.8029   0.0000                                                             
   Description                                                                                      
     l       E           TYP  RCUT    TYP  RCUT                                                     
     0    -18.5828119     23  1.200                                                                 
     0    -13.5018863     23  1.200                                                                 
     1     -7.0897853     23  1.500                                                                 
     1      9.5240782     23  1.500                                                                 
     2     -6.8029130      7  1.500                                                                 
  local pseudopotential read in
  partial core-charges read in
  partial kinetic energy density read in
  atomic valenz-charges read in
  non local Contribution for L=           0  read in
    real space projection operators read in
  non local Contribution for L=           0  read in
    real space projection operators read in
  non local Contribution for L=           1  read in
    real space projection operators read in
  non local Contribution for L=           1  read in
    real space projection operators read in
    PAW grid and wavefunctions read in
 
   number of l-projection  operators is LMAX  =           4
   number of lm-projection operators is LMMAX =           8
 
 Optimization of the real space projectors (new method)

 maximal supplied QI-value         = 15.12
 optimisation between [QCUT,QGAM] = [ 11.34, 22.83] = [ 36.00,145.93] Ry 
 Optimized for a Real-space Cutoff    1.39 Angstroem

   l    n(q)    QCUT    max X(q) W(low)/X(q) W(high)/X(q)  e(spline) 
   2      9    11.338    60.898    0.39E-03    0.42E-03    0.21E-06
   2      9    11.338    58.894    0.40E-03    0.42E-03    0.22E-06
   0      9    11.338   109.617    0.13E-03    0.20E-04    0.13E-06
   0      9    11.338    75.026    0.13E-03    0.20E-04    0.13E-06
   1      9    11.338    16.344    0.33E-04    0.24E-03    0.18E-06
   1      9    11.338    10.160    0.26E-04    0.19E-03    0.15E-06
 Optimization of the real space projectors (new method)

 maximal supplied QI-value         = 13.61
 optimisation between [QCUT,QGAM] = [ 11.43, 22.86] = [ 36.58,146.31] Ry 
 Optimized for a Real-space Cutoff    1.56 Angstroem

   l    n(q)    QCUT    max X(q) W(low)/X(q) W(high)/X(q)  e(spline) 
   2     10    11.429    80.908    0.27E-03    0.78E-03    0.13E-05
   2     10    11.429    79.000    0.27E-03    0.78E-03    0.13E-05
   0     11    11.429    52.066    0.33E-04    0.97E-04    0.72E-06
   0     11    11.429    24.514    0.27E-04    0.80E-04    0.60E-06
   1     10    11.429    16.033    0.31E-04    0.17E-03    0.36E-06
   1     10    11.429    11.179    0.22E-04    0.13E-03    0.29E-06
 Optimization of the real space projectors (new method)

 maximal supplied QI-value         = 25.13
 optimisation between [QCUT,QGAM] = [ 11.31, 22.87] = [ 35.82,146.48] Ry 
 Optimized for a Real-space Cutoff    1.27 Angstroem

   l    n(q)    QCUT    max X(q) W(low)/X(q) W(high)/X(q)  e(spline) 
   0      9    11.310    79.467    0.75E-04    0.16E-03    0.36E-06
   0      9    11.310    66.151    0.74E-04    0.16E-03    0.36E-06
   1      8    11.310    17.416    0.35E-03    0.12E-03    0.95E-06
   1      8    11.310    12.382    0.37E-03    0.13E-03    0.98E-06
  PAW_PBE Au 04Oct2007                  :
 energy of atom  1       EATOM= -926.0867
 kinetic energy error for atom=    0.0042 (will be added to EATOM!!)
  PAW_PBE Mo 08Apr2002                  :
 energy of atom  2       EATOM= -217.5176
 kinetic energy error for atom=    0.0017 (will be added to EATOM!!)
  PAW_PBE N 08Apr2002                   :
 energy of atom  3       EATOM= -264.5486
 kinetic energy error for atom=    0.0138 (will be added to EATOM!!)
 
 
 POSCAR: Au-Mo-N
  positions in direct lattice
  velocities in cartesian coordinates
 exchange correlation table for  LEXCH =        8
   RHO(1)=    0.500       N(1)  =     2000
   RHO(2)=  100.500       N(2)  =     4000

 VTST: version 3.2, (02/03/18)

 CHAIN: initializing optimizer
 
 OPT: Using VASP Conjugate-Gradient optimizer
 CHAIN: Read ICHAIN            0
 
 POSCAR: Au-Mo-N
  positions in direct lattice
  velocities in cartesian coordinates
 


--------------------------------------------------------------------------------------------------------


 ion  position               nearest neighbor table
   1  0.000  0.000  0.238-  16 2.94  12 2.94   6 2.94   8 2.94   7 2.94   3 2.94  10 2.94   4 2.94
                             2 2.94
   2  0.333  0.000  0.238-   9 2.94  11 2.94  17 2.94  10 2.94   8 2.94   4 2.94   5 2.94   1 2.94
                             3 2.94
   3  0.667  0.000  0.238-   7 2.94  18 2.94  12 2.94   1 2.94  11 2.94   5 2.94   6 2.94   9 2.94
                             2 2.94
   4  0.000  0.333  0.238-  10 2.94   6 2.94   5 2.94  13 2.94   2 2.94  15 2.94   9 2.94   1 2.94
                             7 2.94
   5  0.333  0.333  0.238-  13 2.94   7 2.94  11 2.94   4 2.94   2 2.94  14 2.94   3 2.94   8 2.94
                             6 2.94
   6  0.667  0.333  0.238-  15 2.94  14 2.94   1 2.94  12 2.94   4 2.94   9 2.94   8 2.94   3 2.94
                             5 2.94
   7  0.000  0.667  0.238-  18 2.94   3 2.94  16 2.94   5 2.94   1 2.94  13 2.94   8 2.94   4 2.94
                             9 2.94
   8  0.333  0.667  0.238-   9 2.94  17 2.94   1 2.94   2 2.94  14 2.94  16 2.94   6 2.94   7 2.94
                             5 2.94
   9  0.667  0.667  0.238-   2 2.94   8 2.94  17 2.94   6 2.94  15 2.94   4 2.94   3 2.94  18 2.94
                             7 2.94
  10  0.111  0.111  0.346-  20 2.91  11 2.94  17 2.94   2 2.94   4 2.94   1 2.94  12 2.94  16 2.94
                            13 2.94  15 2.94  26 2.95  19 2.95
  11  0.444  0.111  0.346-  20 2.91  21 2.91  13 2.94   2 2.94  10 2.94  17 2.94   5 2.94   3 2.94
                            18 2.94  14 2.94  12 2.94  27 2.94
  12  0.778  0.111  0.346-  21 2.91  16 2.94  18 2.94   1 2.94  14 2.94  15 2.94   3 2.94   6 2.94
                            10 2.94  11 2.94  25 2.95  19 2.95
  13  0.111  0.444  0.346-  23 2.91  20 2.91   5 2.94  18 2.94  11 2.94   7 2.94   4 2.94  16 2.94
                            10 2.94  14 2.94  15 2.94  22 2.94
  14  0.444  0.444  0.346-  21 2.91  23 2.91  15 2.94   6 2.94  12 2.94   8 2.94  17 2.94   5 2.94
                            16 2.94  13 2.94  11 2.94  24 2.94
  15  0.778  0.444  0.346-  24 2.93  22 2.93  14 2.94   6 2.94  17 2.94  12 2.94   9 2.94   4 2.94
                            10 2.94  13 2.94  18 2.94  19 2.95
  16  0.111  0.778  0.346-  23 2.91  18 2.94  12 2.94   7 2.94   1 2.94   8 2.94  13 2.94  10 2.94
                            14 2.94  17 2.94  25 2.95  26 2.95
  17  0.444  0.778  0.346-  27 2.93  24 2.93   9 2.94  15 2.94   2 2.94  10 2.94  11 2.94   8 2.94
                            14 2.94  16 2.94  18 2.94  26 2.95
  18  0.778  0.778  0.346-  22 2.93  27 2.93  16 2.94   7 2.94  13 2.94  12 2.94   3 2.94  11 2.94
                             9 2.94  15 2.94  17 2.94  25 2.95
  19  0.889  0.223  0.455-  24 2.93  22 2.93  21 2.94  20 2.94  28 2.95  26 2.95  25 2.95  15 2.95
                            10 2.95  12 2.95  32 3.02  31 3.02
  20  0.222  0.222  0.453-  36 2.77  11 2.91  13 2.91  10 2.91  23 2.94  21 2.94  26 2.94  19 2.94
                            27 2.95  22 2.95  29 2.98  31 2.98
  21  0.555  0.222  0.453-  36 2.77  14 2.91  11 2.91  12 2.91  20 2.94  23 2.94  25 2.94  19 2.94
                            27 2.95  24 2.95  30 2.98  32 2.98
  22  0.887  0.557  0.454-  24 2.91  27 2.91  18 2.93  15 2.93  25 2.93  19 2.93  13 2.94  35 2.95
                            23 2.95  20 2.95  33 3.00  31 3.00
  23  0.222  0.555  0.453-  36 2.77  13 2.91  14 2.91  16 2.91  20 2.94  21 2.94  25 2.94  26 2.94
                            22 2.95  24 2.95  33 2.98  34 2.98
  24  0.557  0.557  0.454-  27 2.91  22 2.91  15 2.93  17 2.93  26 2.93  19 2.93  14 2.94  35 2.95
                            21 2.95  23 2.95  32 3.00  34 3.00
  25  0.889  0.889  0.455-  22 2.93  27 2.93  23 2.94  21 2.94  28 2.95  19 2.95  26 2.95  18 2.95
                            16 2.95  12 2.95  33 3.02  30 3.02
  26  0.223  0.889  0.455-  27 2.93  24 2.93  20 2.94  23 2.94  28 2.95  19 2.95  25 2.95  17 2.95
                            10 2.95  16 2.95  29 3.02  34 3.02
  27  0.557  0.887  0.454-  24 2.91  22 2.91  17 2.93  18 2.93  26 2.93  25 2.93  11 2.94  35 2.95
                            20 2.95  21 2.95  29 3.00  30 3.00
  28  0.000  0.000  0.563-  25 2.95  19 2.95  26 2.95  34 2.98  32 2.98  33 2.98  30 2.98  31 2.98
                            29 2.98
  29  0.333  0.010  0.565-  30 2.85  31 2.85  36 2.87  20 2.98  35 2.98  28 2.98  27 3.00  26 3.02
                            34 3.11
  30  0.657  0.010  0.565-  29 2.85  32 2.85  36 2.87  21 2.98  35 2.98  28 2.98  27 3.00  25 3.02
                            33 3.11
  31  0.010  0.333  0.565-  33 2.85  29 2.85  36 2.87  20 2.98  35 2.98  28 2.98  22 3.00  19 3.02
                            32 3.11
  32  0.657  0.333  0.565-  34 2.85  30 2.85  36 2.87  21 2.98  35 2.98  28 2.98  24 3.00  19 3.02
                            31 3.11
  33  0.010  0.657  0.565-  31 2.85  34 2.85  36 2.87  23 2.98  35 2.98  28 2.98  22 3.00  25 3.02
                            30 3.11
  34  0.333  0.657  0.565-  32 2.85  33 2.85  36 2.87  23 2.98  35 2.98  28 2.98  24 3.00  26 3.02
                            29 3.11
  35  0.667  0.667  0.563-  24 2.95  27 2.95  22 2.95  29 2.98  34 2.98  32 2.98  31 2.98  30 2.98
                            33 2.98
  36  0.333  0.333  0.551-  37 1.71  20 2.77  23 2.77  21 2.77  33 2.87  31 2.87  29 2.87  30 2.87
                            34 2.87  32 2.87
  37  0.333  0.333  0.628-  36 1.71
 
  LATTYP: Found a hexagonal cell.
 ALAT       =     8.8135128021
 C/A-ratio  =     2.5184286595
  
  Lattice vectors:
  
 A1 = (  -4.4067569092,  -7.6327256898,   0.0000000000)
 A2 = (   8.8135128021,   0.0000000000,   0.0000000000)
 A3 = (   0.0000000000,   0.0000000000,  22.1962032318)


Analysis of symmetry for initial positions (statically):
=====================================================================
 Subroutine PRICEL returns:
 Original cell was already a primitive cell.
 

 Routine SETGRP: Setting up the symmetry group for a 
 hexagonal supercell.


 Subroutine GETGRP returns: Found  6 space group operations
 (whereof  6 operations were pure point group operations)
 out of a pool of 24 trial point group operations.


The static configuration has the point symmetry C_3v.


Analysis of symmetry for dynamics (positions and initial velocities):
=====================================================================
 Subroutine PRICEL returns:
 Original cell was already a primitive cell.
 

 Routine SETGRP: Setting up the symmetry group for a 
 hexagonal supercell.


 Subroutine GETGRP returns: Found  6 space group operations
 (whereof  6 operations were pure point group operations)
 out of a pool of 24 trial point group operations.


The dynamic configuration has the point symmetry C_3v.


Analysis of constrained symmetry for selective dynamics:
=====================================================================
 Subroutine PRICEL returns:
 Original cell was already a primitive cell.
 

 Routine SETGRP: Setting up the symmetry group for a 
 hexagonal supercell.


 Subroutine GETGRP returns: Found  6 space group operations
 (whereof  6 operations were pure point group operations)
 out of a pool of 24 trial point group operations.


The constrained configuration has the point symmetry C_3v.


 Subroutine INISYM returns: Found  6 space group operations
 (whereof  6 operations are pure point group operations),
 and found     1 'primitive' translations


----------------------------------------------------------------------------------------

                                     Primitive cell                                     

  volume of cell :    1493.1636

  direct lattice vectors                    reciprocal lattice vectors
     8.813512802  0.000000000  0.000000000     0.113462137 -0.065507406  0.000000000
     4.406756909  7.632725690  0.000000000     0.000000000  0.131014796  0.000000000
     0.000000000  0.000000000 22.196203232     0.000000000  0.000000000  0.045052750

  length of vectors
     8.813512802  8.813512802 22.196203232     0.131014796  0.131014796  0.045052750

  position of ions in fractional coordinates (direct lattice)
     0.000000000  0.000000000  0.237895638
     0.333333343  0.000000000  0.237895638
     0.666666687  0.000000000  0.237895638
     1.000000000  0.333333343  0.237895638
     0.333333313  0.333333343  0.237895638
     0.666666687  0.333333343  0.237895638
     1.000000000  0.666666687  0.237895638
     0.333333343  0.666666687  0.237895638
     0.666666627  0.666666687  0.237895638
     0.111111119  0.111111112  0.345965207
     0.444444418  0.111111112  0.345965207
     0.777777791  0.111111112  0.345965207
     0.111111127  0.444444448  0.345965207
     0.444444478  0.444444448  0.345965207
     0.777777731  0.444444448  0.345965207
     0.111111090  0.777777791  0.345965207
     0.444444448  0.777777791  0.345965207
     0.777777851  0.777777791  0.345965207
     0.888518739  0.222962538  0.454757985
     0.222314337  0.222314322  0.452545314
     0.555371387  0.222314322  0.452545314
     0.886544633  0.556727714  0.453613148
     0.222314292  0.555371387  0.452545314
     0.556727714  0.556727714  0.453613148
     0.888518739  0.888518739  0.454757985
     0.222962568  0.888518739  0.454757985
     0.556727654  0.886544633  0.453613148
     0.000000000  0.000000000  0.563129614
     0.333456407  0.009911723  0.564946950
     0.656631900  0.009911723  0.564946950
     0.009911723  0.333456407  0.564946950
     0.656631900  0.333456407  0.564946950
     0.009911723  0.656631900  0.564946950
     0.333456407  0.656631900  0.564946950
     0.666666627  0.666666687  0.563093302
     0.333333313  0.333333343  0.551198178
     0.333333313  0.333333343  0.628024104

  ion indices of the primitive-cell ions
   primitive index   ion index
                 1           1
                 2           2
                 3           3
                 4           4
                 5           5
                 6           6
                 7           7
                 8           8
                 9           9
                10          10
                11          11
                12          12
                13          13
                14          14
                15          15
                16          16
                17          17
                18          18
                19          19
                20          20
                21          21
                22          22
                23          23
                24          24
                25          25
                26          26
                27          27
                28          28
                29          29
                30          30
                31          31
                32          32
                33          33
                34          34
                35          35
                36          36
                37          37

----------------------------------------------------------------------------------------

 
 
 KPOINTS: Automatic mesh                          

Automatic generation of k-mesh.
 Grid dimensions read from file:
 generate k-points for:    8    8    1

 Generating k-lattice:

  Cartesian coordinates                     Fractional coordinates (reciprocal lattice)
     0.014182767 -0.008188426  0.000000000     0.125000000 -0.000000000  0.000000000
     0.000000000  0.016376850  0.000000000     0.000000000  0.125000000  0.000000000
     0.000000000  0.000000000  0.045052750     0.000000000  0.000000000  1.000000000

  Length of vectors
     0.016376850  0.016376850  0.045052750

  Shift w.r.t. Gamma in fractional coordinates (k-lattice)
     0.000000000  0.000000000  0.000000000

 TETIRR: Found     36 inequivalent tetrahedra from      384
 
 Subroutine IBZKPT returns following result:
 ===========================================
 
 Found     10 irreducible k-points:
 
 Following reciprocal coordinates:
            Coordinates               Weight
  0.000000  0.000000  0.000000      1.000000
  0.125000 -0.000000  0.000000      6.000000
  0.250000 -0.000000  0.000000      6.000000
  0.375000  0.000000  0.000000      6.000000
  0.500000 -0.000000  0.000000      3.000000
  0.250000  0.125000  0.000000      6.000000
  0.375000  0.125000  0.000000     12.000000
  0.500000  0.125000  0.000000     12.000000
  0.500000  0.250000  0.000000      6.000000
 -0.375000  0.250000  0.000000      6.000000
 
 Following cartesian coordinates:
            Coordinates               Weight
  0.000000  0.000000  0.000000      1.000000
  0.014183 -0.008188  0.000000      6.000000
  0.028366 -0.016377  0.000000      6.000000
  0.042548 -0.024565  0.000000      6.000000
  0.056731 -0.032754  0.000000      3.000000
  0.028366 -0.000000  0.000000      6.000000
  0.042548 -0.008188  0.000000     12.000000
  0.056731 -0.016377  0.000000     12.000000
  0.056731 -0.000000  0.000000      6.000000
 -0.042548  0.057319  0.000000      6.000000
 


--------------------------------------------------------------------------------------------------------




 Dimension of arrays:
   k-points           NKPTS =     10   k-points in BZ     NKDIM =     10   number of bands    NBANDS=    252
   number of dos      NEDOS =    301   number of ions     NIONS =     37
   non local maximal  LDIM  =      6   non local SUM 2l+1 LMDIM =     18
   total plane-waves  NPLWV = 290304
   max r-space proj   IRMAX =   3166   max aug-charges    IRDMAX=  12681
   dimension x,y,z NGX =    48 NGY =   48 NGZ =  126
   dimension x,y,z NGXF=    96 NGYF=   96 NGZF=  252
   support grid    NGXF=    96 NGYF=   96 NGZF=  252
   ions per type =              35   1   1
   NGX,Y,Z   is equivalent  to a cutoff of   9.05,  9.05,  9.44 a.u.
   NGXF,Y,Z  is equivalent  to a cutoff of  18.11, 18.11, 18.87 a.u.

 SYSTEM =  unknown system                          
 POSCAR =  Au-Mo-N                                 

 Startparameter for this run:
   NWRITE =      2    write-flag & timer
   PREC   = normal    normal or accurate (medium, high low for compatibility)
   ISTART =      0    job   : 0-new  1-cont  2-samecut
   ICHARG =     11    charge: 1-file 2-atom 10-const
   ISPIN  =      1    spin polarized calculation?
   LNONCOLLINEAR =      F non collinear calculations
   LSORBIT =      F    spin-orbit coupling
   INIWAV =      1    electr: 0-lowe 1-rand  2-diag
   LASPH  =      F    aspherical Exc in radial PAW
   METAGGA=      F    non-selfconsistent MetaGGA calc.

 Electronic Relaxation 1
   ENCUT  =  500.0 eV  36.75 Ry    6.06 a.u.  16.07 16.07 40.47*2*pi/ulx,y,z
   ENINI  =  500.0     initial cutoff
   ENAUG  =  627.1 eV  augmentation charge cutoff
   NELM   =    150;   NELMIN=  2; NELMDL= -5     # of ELM steps 
   EDIFF  = 0.1E-04   stopping-criterion for ELM
   LREAL  =      T    real-space projection
   NLSPLINE    = F    spline interpolate recip. space projectors
   LCOMPAT=      F    compatible to vasp.4.4
   GGA_COMPAT  = T    GGA compatible to vasp.4.4-vasp.4.6
   LMAXPAW     = -100 max onsite density
   LMAXMIX     =    2 max onsite mixed and CHGCAR
   VOSKOWN=      0    Vosko Wilk Nusair interpolation
   ROPT   =   -0.00050  -0.00050  -0.00050
 Ionic relaxation
   EDIFFG = -.1E-01   stopping-criterion for IOM
   NSW    =      0    number of steps for IOM
   NBLOCK =      1;   KBLOCK =      1    inner block; outer block 
   IBRION =     -1    ionic relax: 0-MD 1-quasi-New 2-CG
   NFREE  =      1    steps in history (QN), initial steepest desc. (CG)
   ISIF   =      2    stress and relaxation
   IWAVPR =     10    prediction:  0-non 1-charg 2-wave 3-comb
   ISYM   =      2    0-nonsym 1-usesym 2-fastsym
   LCORR  =      T    Harris-Foulkes like correction to forces

   POTIM  = 0.5000    time-step for ionic-motion
   TEIN   =    0.0    initial temperature
   TEBEG  =    0.0;   TEEND  =   0.0 temperature during run
   SMASS  =  -3.00    Nose mass-parameter (am)
   estimated Nose-frequenzy (Omega)   =  0.10E-29 period in steps = 0.13E+47 mass=  -0.178E-26a.u.
   SCALEE = 1.0000    scale energy and forces
   NPACO  =    256;   APACO  = 16.0  distance and # of slots for P.C.
   PSTRESS=    0.0 pullay stress

  Mass of Ions in am
   POMASS = 196.97 95.94 14.00
  Ionic Valenz
   ZVAL   =  11.00  6.00  5.00
  Atomic Wigner-Seitz radii
   RWIGS  =  -1.00 -1.00 -1.00
  virtual crystal weights 
   VCA    =   1.00  1.00  1.00
   NELECT =     396.0000    total number of electrons
   NUPDOWN=      -1.0000    fix difference up-down

 DOS related values:
   EMIN   =  10.00;   EMAX   =-10.00  energy-range for DOS
   EFERMI =   0.00
   ISMEAR =    -5;   SIGMA  =   0.10  broadening in eV -4-tet -1-fermi 0-gaus

 Electronic relaxation 2 (details)
   IALGO  =     68    algorithm
   LDIAG  =      T    sub-space diagonalisation (order eigenvalues)
   LSUBROT=      F    optimize rotation matrix (better conditioning)
   TURBO    =      0    0=normal 1=particle mesh
   IRESTART =      0    0=no restart 2=restart with 2 vectors
   NREBOOT  =      0    no. of reboots
   NMIN     =      0    reboot dimension
   EREF     =   0.00    reference energy to select bands
   IMIX   =      4    mixing-type and parameters
     AMIX     =   0.40;   BMIX     =  1.00
     AMIX_MAG =   1.60;   BMIX_MAG =  1.00
     AMIN     =   0.10
     WC   =   100.;   INIMIX=   1;  MIXPRE=   1;  MAXMIX= -45

 Intra band minimization:
   WEIMIN = 0.0000     energy-eigenvalue tresh-hold
   EBREAK =  0.99E-08  absolut break condition
   DEPER  =   0.30     relativ break condition  

   TIME   =   0.40     timestep for ELM

  volume/ion in A,a.u.               =      40.36       272.33
  Fermi-wavevector in a.u.,A,eV,Ry     =   1.051810  1.987633 15.052193  1.106305
  Thomas-Fermi vector in A             =   2.186868
 
 Write flags
   LWAVE        =      F    write WAVECAR
   LDOWNSAMPLE  =      F    k-point downsampling of WAVECAR
   LCHARG       =      F    write CHGCAR
   LVTOT        =      F    write LOCPOT, total local potential
   LVHAR        =      F    write LOCPOT, Hartree potential only
   LELF         =      F    write electronic localiz. function (ELF)
   LORBIT       =     10    0 simple, 1 ext, 2 COOP (PROOUT), +10 PAW based schemes


 Dipole corrections
   LMONO  =      F    monopole corrections only (constant potential shift)
   LDIPOL =      F    correct potential (dipole corrections)
   IDIPOL =      0    1-x, 2-y, 3-z, 4-all directions 
   EPSILON=  1.0000000 bulk dielectric constant

 Exchange correlation treatment:
   GGA     =    --    GGA type
   LEXCH   =     8    internal setting for exchange type
   VOSKOWN=      0    Vosko Wilk Nusair interpolation
   LHFCALC =     F    Hartree Fock is set to
   LHFONE  =     F    Hartree Fock one center treatment
   AEXX    =    0.0000 exact exchange contribution

 Linear response parameters
   LEPSILON=     F    determine dielectric tensor
   LRPA    =     F    only Hartree local field effects (RPA)
   LNABLA  =     F    use nabla operator in PAW spheres
   LVEL    =     F    velocity operator in full k-point grid
   LINTERFAST=   F  fast interpolation
   KINTER  =     0    interpolate to denser k-point grid
   CSHIFT  =0.1000    complex shift for real part using Kramers Kronig
   OMEGAMAX=  -1.0    maximum frequency
   DEG_THRESHOLD= 0.2000000E-02 threshold for treating states as degnerate
   RTIME   =   -0.100 relaxation time in fs
  (WPLASMAI=    0.000 imaginary part of plasma frequency in eV, 0.658/RTIME)
   DFIELD  = 0.0000000 0.0000000 0.0000000 field for delta impulse in time
 
 Orbital magnetization related:
   ORBITALMAG=     F  switch on orbital magnetization
   LCHIMAG   =     F  perturbation theory with respect to B field
   DQ        =  0.001000  dq finite difference perturbation B field
   LLRAUG    =     F  two centre corrections for induced B field



--------------------------------------------------------------------------------------------------------


 Static calculation
 charge density and potential remain constant during run
 non-spin polarized calculation
 RMM-DIIS sequential band-by-band and
  variant of blocked Davidson during initial phase
 perform sub-space diagonalisation
    before iterative eigenvector-optimisation
 no mixing
 using additional bands           54
 real space projection scheme for non local part
 use partial core corrections
 calculate Harris-corrections to forces 
   (improved forces if not selfconsistent)
 use gradient corrections 
 WARNING: stress and forces are not correct
  (second derivative of E(xc) not defined)
 use of overlap-Matrix (Vanderbilt PP)
 Fermi weights with tetrahedron method with Bloechl corrections


--------------------------------------------------------------------------------------------------------


  energy-cutoff  :      500.00
  volume of cell :     1493.16
      direct lattice vectors                 reciprocal lattice vectors
     8.813512802  0.000000000  0.000000000     0.113462137 -0.065507406  0.000000000
     4.406756909  7.632725690  0.000000000     0.000000000  0.131014796  0.000000000
     0.000000000  0.000000000 22.196203232     0.000000000  0.000000000  0.045052750

  length of vectors
     8.813512802  8.813512802 22.196203232     0.131014796  0.131014796  0.045052750


 
 k-points in units of 2pi/SCALE and weight: Automatic mesh                          
   0.00000000  0.00000000  0.00000000       0.016
   0.01418277 -0.00818843  0.00000000       0.094
   0.02836553 -0.01637685  0.00000000       0.094
   0.04254830 -0.02456528  0.00000000       0.094
   0.05673107 -0.03275370  0.00000000       0.047
   0.02836553 -0.00000000  0.00000000       0.094
   0.04254830 -0.00818843  0.00000000       0.188
   0.05673107 -0.01637685  0.00000000       0.188
   0.05673107 -0.00000000  0.00000000       0.094
  -0.04254830  0.05731898  0.00000000       0.094
 
 k-points in reciprocal lattice and weights: Automatic mesh                          
   0.00000000  0.00000000  0.00000000       0.016
   0.12500000 -0.00000000  0.00000000       0.094
   0.25000000 -0.00000000  0.00000000       0.094
   0.37500000  0.00000000  0.00000000       0.094
   0.50000000 -0.00000000  0.00000000       0.047
   0.25000000  0.12500000  0.00000000       0.094
   0.37500000  0.12500000  0.00000000       0.188
   0.50000000  0.12500000  0.00000000       0.188
   0.50000000  0.25000000  0.00000000       0.094
  -0.37500000  0.25000000  0.00000000       0.094
 
 position of ions in fractional coordinates (direct lattice) 
   0.00000000  0.00000000  0.23789564
   0.33333334  0.00000000  0.23789564
   0.66666669  0.00000000  0.23789564
   0.00000000  0.33333334  0.23789564
   0.33333331  0.33333334  0.23789564
   0.66666669  0.33333334  0.23789564
   0.00000000  0.66666669  0.23789564
   0.33333334  0.66666669  0.23789564
   0.66666663  0.66666669  0.23789564
   0.11111112  0.11111111  0.34596521
   0.44444442  0.11111111  0.34596521
   0.77777779  0.11111111  0.34596521
   0.11111113  0.44444445  0.34596521
   0.44444448  0.44444445  0.34596521
   0.77777773  0.44444445  0.34596521
   0.11111109  0.77777779  0.34596521
   0.44444445  0.77777779  0.34596521
   0.77777785  0.77777779  0.34596521
   0.88851874  0.22296254  0.45475798
   0.22231434  0.22231432  0.45254531
   0.55537139  0.22231432  0.45254531
   0.88654463  0.55672771  0.45361315
   0.22231429  0.55537139  0.45254531
   0.55672771  0.55672771  0.45361315
   0.88851874  0.88851874  0.45475798
   0.22296257  0.88851874  0.45475798
   0.55672765  0.88654463  0.45361315
   0.00000000  0.00000000  0.56312961
   0.33345641  0.00991172  0.56494695
   0.65663190  0.00991172  0.56494695
   0.00991172  0.33345641  0.56494695
   0.65663190  0.33345641  0.56494695
   0.00991172  0.65663190  0.56494695
   0.33345641  0.65663190  0.56494695
   0.66666663  0.66666669  0.56309330
   0.33333331  0.33333334  0.55119818
   0.33333331  0.33333334  0.62802410
 
 position of ions in cartesian coordinates  (Angst):
   0.00000000  0.00000000  5.28037993
   2.93783769  0.00000000  5.28037993
   5.87567538  0.00000000  5.28037993
   1.46891901  2.54424197  5.28037993
   4.40675643  2.54424197  5.28037993
   7.34459439  2.54424197  5.28037993
   2.93783803  5.08848395  5.28037993
   5.87567571  5.08848395  5.28037993
   8.81351288  5.08848395  5.28037993
   1.46891893  0.84808064  7.67911405
   4.40675623  0.84808064  7.67911405
   7.34459418  0.84808064  7.67911405
   2.93783798  3.39232256  7.67911405
   5.87567574  3.39232256  7.67911405
   8.81351263  3.39232256  7.67911405
   4.40675667  5.93656453  7.67911405
   7.34459449  5.93656453  7.67911405
  10.28243270  5.93656453  7.67911405
   8.81351299  1.70181189 10.09390065
   2.93905542  1.69686423 10.04478777
   5.87445800  1.69686423 10.04478777
  10.26693617  4.24934992 10.06848962
   4.40675655  4.23899745 10.04478777
   7.36009053  4.24934992 10.06848962
  11.74645737  6.78181981 10.09390065
   5.88056954  6.78181981 10.09390065
   8.81351299  6.76675199 10.06848962
   0.00000000  0.00000000 12.49933935
   2.98260087  0.07565346 12.53967732
   5.83091221  0.07565346 12.53967732
   1.55681842  2.54518129 12.53967732
   7.25669498  2.54518129 12.53967732
   2.98097426  5.01189117 12.53967732
   5.83253948  5.01189117 12.53967732
   8.81351288  5.08848395 12.49853336
   4.40675643  2.54424197 12.23450679
   4.40675643  2.54424197 13.93975065
 


--------------------------------------------------------------------------------------------------------


 k-point   1 :   0.0000 0.0000 0.0000  plane waves:   37827
 k-point   2 :   0.1250-0.0000 0.0000  plane waves:   37876
 k-point   3 :   0.2500-0.0000 0.0000  plane waves:   37924
 k-point   4 :   0.3750 0.0000 0.0000  plane waves:   37904
 k-point   5 :   0.5000-0.0000 0.0000  plane waves:   37912
 k-point   6 :   0.2500 0.1250 0.0000  plane waves:   37858
 k-point   7 :   0.3750 0.1250 0.0000  plane waves:   37928
 k-point   8 :   0.5000 0.1250 0.0000  plane waves:   37924
 k-point   9 :   0.5000 0.2500 0.0000  plane waves:   37926
 k-point  10 :  -0.3750 0.2500 0.0000  plane waves:   37916

 maximum and minimum number of plane-waves per node :     37928    37827

 maximum number of plane-waves:     37928
 maximum index in each direction: 
   IXMAX=   16   IYMAX=   16   IZMAX=   40
   IXMIN=  -16   IYMIN=  -16   IZMIN=  -40


 serial   3D FFT for wavefunctions
 parallel 3D FFT for charge:
    minimum data exchange during FFTs selected (reduces bandwidth)


 total amount of memory used by VASP MPI-rank0   122663. kBytes
=======================================================================

   base      :      30000. kBytes
   nonlr-proj:      14278. kBytes
   fftplans  :       4330. kBytes
   grid      :      17879. kBytes
   one-center:        575. kBytes
   wavefun   :      55601. kBytes
 
     INWAV:  cpu time    0.0000: real time    0.0000
 initial charge density was supplied:
 number of electron     396.0000053 magnetization 
 keeping initial charge density in first step


--------------------------------------------------------------------------------------------------------


 Maximum index for non-local projection operator         3036
 Maximum index for augmentation-charges          857 (set IRDMAX)


--------------------------------------------------------------------------------------------------------


 First call to EWALD:  gamma=   0.155
 Maximum number of real-space cells 4x 4x 2
 Maximum number of reciprocal cells 2x 2x 5

    FEWALD:  cpu time    0.0013: real time    0.0013


--------------------------------------- Iteration      1(   1)  ---------------------------------------


    POTLOK:  cpu time    0.0437: real time    0.0442
    SETDIJ:  cpu time    0.0049: real time    0.0049
     EDDAV:  cpu time    7.1398: real time    7.1433
 BZINTS: Fermi energy:   11.263798;  396.000000 electrons
         Band energy: 0.149509E+04;  BLOECHL correction:   -0.007839
       DOS:  cpu time    0.0098: real time    0.0128
    --------------------------------------------
      LOOP:  cpu time    7.1982: real time    7.2052

 eigenvalue-minimisations  :  5040
 total energy-change (2. order) : 0.2603656E+04  (-0.1798033E+05)
 number of electron     396.0000053 magnetization 
 augmentation part      396.0000053 magnetization 

 Free energy of the ion-electron system (eV)
  ---------------------------------------------------
  alpha Z        PSCENC =      1018.96412278
  Ewald energy   TEWEN  =     95034.25078532
  -Hartree energ DENC   =   -129112.62598325
  -exchange      EXHF   =         0.00000000
  -V(xc)+E(xc)   XCENC  =       476.01656969
  PAW double counting   =     35986.37418584   -35189.35172388
  entropy T*S    EENTRO =         0.00000000
  eigenvalues    EBANDS =      1495.09137023
  atomic energy  EATOM  =     32894.93694311
  Solvation  Ediel_sol  =         0.00000000
  ---------------------------------------------------
  free energy    TOTEN  =      2603.65626985 eV

  energy without entropy =     2603.65626985  energy(sigma->0) =     2603.65626985


--------------------------------------------------------------------------------------------------------




--------------------------------------- Iteration      1(   2)  ---------------------------------------


     EDDAV:  cpu time    7.7613: real time    7.7637
 BZINTS: Fermi energy:    1.340177;  396.000000 electrons
         Band energy:-0.110361E+04;  BLOECHL correction:   -0.053422
       DOS:  cpu time    0.0097: real time    0.0097
    --------------------------------------------
      LOOP:  cpu time    7.7709: real time    7.7734

 eigenvalue-minimisations  :  5628
 total energy-change (2. order) :-0.2598704E+04  (-0.2399979E+04)
 number of electron     396.0000053 magnetization 
 augmentation part      396.0000053 magnetization 

 Free energy of the ion-electron system (eV)
  ---------------------------------------------------
  alpha Z        PSCENC =      1018.96412278
  Ewald energy   TEWEN  =     95034.25078532
  -Hartree energ DENC   =   -129112.62598325
  -exchange      EXHF   =         0.00000000
  -V(xc)+E(xc)   XCENC  =       476.01656969
  PAW double counting   =     35986.37418584   -35189.35172388
  entropy T*S    EENTRO =         0.00000000
  eigenvalues    EBANDS =     -1103.61271295
  atomic energy  EATOM  =     32894.93694311
  Solvation  Ediel_sol  =         0.00000000
  ---------------------------------------------------
  free energy    TOTEN  =         4.95218667 eV

  energy without entropy =        4.95218667  energy(sigma->0) =        4.95218667


--------------------------------------------------------------------------------------------------------




--------------------------------------- Iteration      1(   3)  ---------------------------------------


     EDDAV:  cpu time    8.0627: real time    8.0654
 BZINTS: Fermi energy:    0.684864;  396.000000 electrons
         Band energy:-0.122974E+04;  BLOECHL correction:   -0.044737
       DOS:  cpu time    0.0100: real time    0.0100
    --------------------------------------------
      LOOP:  cpu time    8.0727: real time    8.0754

 eigenvalue-minimisations  :  5880
 total energy-change (2. order) :-0.1261257E+03  (-0.1216445E+03)
 number of electron     396.0000053 magnetization 
 augmentation part      396.0000053 magnetization 

 Free energy of the ion-electron system (eV)
  ---------------------------------------------------
  alpha Z        PSCENC =      1018.96412278
  Ewald energy   TEWEN  =     95034.25078532
  -Hartree energ DENC   =   -129112.62598325
  -exchange      EXHF   =         0.00000000
  -V(xc)+E(xc)   XCENC  =       476.01656969
  PAW double counting   =     35986.37418584   -35189.35172388
  entropy T*S    EENTRO =         0.00000000
  eigenvalues    EBANDS =     -1229.73845172
  atomic energy  EATOM  =     32894.93694311
  Solvation  Ediel_sol  =         0.00000000
  ---------------------------------------------------
  free energy    TOTEN  =      -121.17355210 eV

  energy without entropy =     -121.17355210  energy(sigma->0) =     -121.17355210


--------------------------------------------------------------------------------------------------------




--------------------------------------- Iteration      1(   4)  ---------------------------------------


     EDDAV:  cpu time    7.6731: real time    7.6752
 BZINTS: Fermi energy:    0.671807;  396.000000 electrons
         Band energy:-0.123238E+04;  BLOECHL correction:   -0.044577
       DOS:  cpu time    0.0090: real time    0.0090
    --------------------------------------------
      LOOP:  cpu time    7.6821: real time    7.6842

 eigenvalue-minimisations  :  5544
 total energy-change (2. order) :-0.2645740E+01  (-0.2638810E+01)
 number of electron     396.0000053 magnetization 
 augmentation part      396.0000053 magnetization 

 Free energy of the ion-electron system (eV)
  ---------------------------------------------------
  alpha Z        PSCENC =      1018.96412278
  Ewald energy   TEWEN  =     95034.25078532
  -Hartree energ DENC   =   -129112.62598325
  -exchange      EXHF   =         0.00000000
  -V(xc)+E(xc)   XCENC  =       476.01656969
  PAW double counting   =     35986.37418584   -35189.35172388
  entropy T*S    EENTRO =         0.00000000
  eigenvalues    EBANDS =     -1232.38419205
  atomic energy  EATOM  =     32894.93694311
  Solvation  Ediel_sol  =         0.00000000
  ---------------------------------------------------
  free energy    TOTEN  =      -123.81929243 eV

  energy without entropy =     -123.81929243  energy(sigma->0) =     -123.81929243


--------------------------------------------------------------------------------------------------------




--------------------------------------- Iteration      1(   5)  ---------------------------------------


     EDDAV:  cpu time    8.5726: real time    8.5755
 BZINTS: Fermi energy:    0.671512;  396.000000 electrons
         Band energy:-0.123247E+04;  BLOECHL correction:   -0.044568
       DOS:  cpu time    0.0102: real time    0.0102
    --------------------------------------------
      LOOP:  cpu time    8.5829: real time    8.5857

 eigenvalue-minimisations  :  6328
 total energy-change (2. order) :-0.8856726E-01  (-0.8854098E-01)
 number of electron     396.0000053 magnetization 
 augmentation part      396.0000053 magnetization 

 Free energy of the ion-electron system (eV)
  ---------------------------------------------------
  alpha Z        PSCENC =      1018.96412278
  Ewald energy   TEWEN  =     95034.25078532
  -Hartree energ DENC   =   -129112.62598325
  -exchange      EXHF   =         0.00000000
  -V(xc)+E(xc)   XCENC  =       476.01656969
  PAW double counting   =     35986.37418584   -35189.35172388
  entropy T*S    EENTRO =         0.00000000
  eigenvalues    EBANDS =     -1232.47275930
  atomic energy  EATOM  =     32894.93694311
  Solvation  Ediel_sol  =         0.00000000
  ---------------------------------------------------
  free energy    TOTEN  =      -123.90785969 eV

  energy without entropy =     -123.90785969  energy(sigma->0) =     -123.90785969


--------------------------------------------------------------------------------------------------------




--------------------------------------- Iteration      1(   6)  ---------------------------------------


    EDDIAG:  cpu time    1.3977: real time    1.3984
  RMM-DIIS:  cpu time    3.9401: real time    3.9414
    ORTHCH:  cpu time    0.2604: real time    0.2607
 BZINTS: Fermi energy:    0.671510;  396.000000 electrons
         Band energy:-0.123247E+04;  BLOECHL correction:   -0.044567
       DOS:  cpu time    0.0097: real time    0.0097
    --------------------------------------------
      LOOP:  cpu time    5.6080: real time    5.6102

 eigenvalue-minimisations  :  5100
 total energy-change (2. order) :-0.1828082E-02  (-0.1828472E-02)
 number of electron     396.0000053 magnetization 
 augmentation part      396.0000053 magnetization 

 Free energy of the ion-electron system (eV)
  ---------------------------------------------------
  alpha Z        PSCENC =      1018.96412278
  Ewald energy   TEWEN  =     95034.25078532
  -Hartree energ DENC   =   -129112.62598325
  -exchange      EXHF   =         0.00000000
  -V(xc)+E(xc)   XCENC  =       476.01656969
  PAW double counting   =     35986.37418584   -35189.35172388
  entropy T*S    EENTRO =         0.00000000
  eigenvalues    EBANDS =     -1232.47458739
  atomic energy  EATOM  =     32894.93694311
  Solvation  Ediel_sol  =         0.00000000
  ---------------------------------------------------
  free energy    TOTEN  =      -123.90968777 eV

  energy without entropy =     -123.90968777  energy(sigma->0) =     -123.90968777


--------------------------------------------------------------------------------------------------------




--------------------------------------- Iteration      1(   7)  ---------------------------------------


    EDDIAG:  cpu time    1.3977: real time    1.3982
  RMM-DIIS:  cpu time    5.2335: real time    5.2350
    ORTHCH:  cpu time    0.2601: real time    0.2605
 BZINTS: Fermi energy:    0.671509;  396.000000 electrons
         Band energy:-0.123248E+04;  BLOECHL correction:   -0.044567
       DOS:  cpu time    0.0100: real time    0.0100
    --------------------------------------------
      LOOP:  cpu time    6.9013: real time    6.9036

 eigenvalue-minimisations  :  6763
 total energy-change (2. order) :-0.5784528E-03  (-0.5750294E-03)
 number of electron     396.0000053 magnetization 
 augmentation part      396.0000053 magnetization 

 Free energy of the ion-electron system (eV)
  ---------------------------------------------------
  alpha Z        PSCENC =      1018.96412278
  Ewald energy   TEWEN  =     95034.25078532
  -Hartree energ DENC   =   -129112.62598325
  -exchange      EXHF   =         0.00000000
  -V(xc)+E(xc)   XCENC  =       476.01656969
  PAW double counting   =     35986.37418584   -35189.35172388
  entropy T*S    EENTRO =         0.00000000
  eigenvalues    EBANDS =     -1232.47516584
  atomic energy  EATOM  =     32894.93694311
  Solvation  Ediel_sol  =         0.00000000
  ---------------------------------------------------
  free energy    TOTEN  =      -123.91026622 eV

  energy without entropy =     -123.91026622  energy(sigma->0) =     -123.91026622


--------------------------------------------------------------------------------------------------------




--------------------------------------- Iteration      1(   8)  ---------------------------------------


    EDDIAG:  cpu time    1.4008: real time    1.4013
  RMM-DIIS:  cpu time    4.5784: real time    4.5799
    ORTHCH:  cpu time    0.2601: real time    0.2601
 BZINTS: Fermi energy:    0.671509;  396.000000 electrons
         Band energy:-0.123248E+04;  BLOECHL correction:   -0.044567
       DOS:  cpu time    0.0100: real time    0.0100
    --------------------------------------------
      LOOP:  cpu time    6.2493: real time    6.2513

 eigenvalue-minimisations  :  5837
 total energy-change (2. order) :-0.5142120E-04  (-0.5068544E-04)
 number of electron     396.0000053 magnetization 
 augmentation part      396.0000053 magnetization 

 Free energy of the ion-electron system (eV)
  ---------------------------------------------------
  alpha Z        PSCENC =      1018.96412278
  Ewald energy   TEWEN  =     95034.25078532
  -Hartree energ DENC   =   -129112.62598325
  -exchange      EXHF   =         0.00000000
  -V(xc)+E(xc)   XCENC  =       476.01656969
  PAW double counting   =     35986.37418584   -35189.35172388
  entropy T*S    EENTRO =         0.00000000
  eigenvalues    EBANDS =     -1232.47521726
  atomic energy  EATOM  =     32894.93694311
  Solvation  Ediel_sol  =         0.00000000
  ---------------------------------------------------
  free energy    TOTEN  =      -123.91031764 eV

  energy without entropy =     -123.91031764  energy(sigma->0) =     -123.91031764


--------------------------------------------------------------------------------------------------------




--------------------------------------- Iteration      1(   9)  ---------------------------------------


    EDDIAG:  cpu time    1.3982: real time    1.3985
  RMM-DIIS:  cpu time    3.1722: real time    3.1732
    ORTHCH:  cpu time    0.2604: real time    0.2606
 BZINTS: Fermi energy:    0.671509;  396.000000 electrons
         Band energy:-0.123248E+04;  BLOECHL correction:   -0.044567
       DOS:  cpu time    0.0098: real time    0.0098
    --------------------------------------------
      LOOP:  cpu time    4.8406: real time    4.8421

 eigenvalue-minimisations  :  3512
 total energy-change (2. order) :-0.4995658E-05  (-0.4895181E-05)
 number of electron     396.0000053 magnetization 
 augmentation part      396.0000053 magnetization 

 Free energy of the ion-electron system (eV)
  ---------------------------------------------------
  alpha Z        PSCENC =      1018.96412278
  Ewald energy   TEWEN  =     95034.25078532
  -Hartree energ DENC   =   -129112.62598325
  -exchange      EXHF   =         0.00000000
  -V(xc)+E(xc)   XCENC  =       476.01656969
  PAW double counting   =     35986.37418584   -35189.35172388
  entropy T*S    EENTRO =         0.00000000
  eigenvalues    EBANDS =     -1232.47522226
  atomic energy  EATOM  =     32894.93694311
  Solvation  Ediel_sol  =         0.00000000
  ---------------------------------------------------
  free energy    TOTEN  =      -123.91032264 eV

  energy without entropy =     -123.91032264  energy(sigma->0) =     -123.91032264


--------------------------------------------------------------------------------------------------------




 average (electrostatic) potential at core
  the test charge radii are     1.2098  1.2296  0.7089
  (the norm of the test charge is              1.0000)
       1 -72.3680       2 -72.3541       3 -72.3540       4 -72.3541       5 -72.3646
       6 -72.3538       7 -72.3540       8 -72.3538       9 -72.3533      10 -72.7009
      11 -72.6848      12 -72.7006      13 -72.6848      14 -72.6844      15 -72.6834
      16 -72.7006      17 -72.6834      18 -72.6836      19 -72.6293      20 -72.9528
      21 -72.9523      22 -72.6727      23 -72.9523      24 -72.6721      25 -72.6293
      26 -72.6293      27 -72.6727      28 -72.3483      29 -72.4430      30 -72.4429
      31 -72.4430      32 -72.4426      33 -72.4429      34 -72.4426      35 -72.3193
      36 -43.1751      37 -68.3282
 
 
 
 E-fermi :   0.6715     XC(G=0):  -6.1431     alpha+bet : -5.7731

 Fermi energy:         0.6715089452

 k-point     1 :       0.0000    0.0000    0.0000
  band No.  band energies     occupation 
      1     -12.3621      2.00000
      2      -8.1404      2.00000
      3      -6.9614      2.00000
      4      -6.0576      2.00000
      5      -6.0365      2.00000
      6      -6.0364      2.00000
      7      -6.0069      2.00000
      8      -5.9688      2.00000
      9      -5.9472      2.00000
     10      -5.9436      2.00000
     11      -5.9436      2.00000
     12      -5.5473      2.00000
     13      -5.5472      2.00000
     14      -5.5395      2.00000
     15      -5.4750      2.00000
     16      -5.4659      2.00000
     17      -5.4659      2.00000
     18      -5.1662      2.00000
     19      -5.1662      2.00000
     20      -5.1549      2.00000
     21      -5.1201      2.00000
     22      -5.0966      2.00000
     23      -5.0966      2.00000
     24      -4.9720      2.00000
     25      -4.9718      2.00000
     26      -4.9706      2.00000
     27      -4.9586      2.00000
     28      -4.9584      2.00000
     29      -4.9334      2.00000
     30      -4.8078      2.00000
     31      -4.7997      2.00000
     32      -4.7997      2.00000
     33      -4.7913      2.00000
     34      -4.7913      2.00000
     35      -4.7774      2.00000
     36      -4.7773      2.00000
     37      -4.7458      2.00000
     38      -4.7425      2.00000
     39      -4.7206      2.00000
     40      -4.7205      2.00000
     41      -4.7198      2.00000
     42      -4.3327      2.00000
     43      -4.3327      2.00000
     44      -4.2848      2.00000
     45      -4.2754      2.00000
     46      -4.2754      2.00000
     47      -4.2232      2.00000
     48      -4.2180      2.00000
     49      -4.2180      2.00000
     50      -4.1914      2.00000
     51      -4.1914      2.00000
     52      -4.1131      2.00000
     53      -4.1057      2.00000
     54      -4.0977      2.00000
     55      -4.0317      2.00000
     56      -3.7815      2.00000
     57      -3.7814      2.00000
     58      -3.7595      2.00000
     59      -3.7213      2.00000
     60      -3.7213      2.00000
     61      -3.7188      2.00000
     62      -3.7002      2.00000
     63      -3.6378      2.00000
     64      -3.6378      2.00000
     65      -3.6026      2.00000
     66      -3.6026      2.00000
     67      -3.5592      2.00000
     68      -3.5535      2.00000
     69      -3.5535      2.00000
     70      -3.5076      2.00000
     71      -3.5076      2.00000
     72      -3.4950      2.00000
     73      -3.4818      2.00000
     74      -3.4818      2.00000
     75      -3.4436      2.00000
     76      -3.4388      2.00000
     77      -3.4388      2.00000
     78      -3.4289      2.00000
     79      -3.4269      2.00000
     80      -3.4269      2.00000
     81      -3.4083      2.00000
     82      -3.4083      2.00000
     83      -3.3802      2.00000
     84      -3.3573      2.00000
     85      -3.3441      2.00000
     86      -3.3441      2.00000
     87      -3.3168      2.00000
     88      -3.3167      2.00000
     89      -3.2672      2.00000
     90      -3.2672      2.00000
     91      -3.2315      2.00000
     92      -3.2039      2.00000
     93      -3.2039      2.00000
     94      -3.1586      2.00000
     95      -3.1586      2.00000
     96      -2.9969      2.00000
     97      -2.9969      2.00000
     98      -2.9920      2.00000
     99      -2.9920      2.00000
    100      -2.8770      2.00000
    101      -2.8665      2.00000
    102      -2.8665      2.00000
    103      -2.8440      2.00000
    104      -2.8380      2.00000
    105      -2.8380      2.00000
    106      -2.7158      2.00000
    107      -2.7158      2.00000
    108      -2.6591      2.00000
    109      -2.6583      2.00000
    110      -2.6539      2.00000
    111      -2.6538      2.00000
    112      -2.6038      2.00000
    113      -2.6038      2.00000
    114      -2.5434      2.00000
    115      -2.5260      2.00000
    116      -2.5168      2.00000
    117      -2.4743      2.00000
    118      -2.4743      2.00000
    119      -2.3738      2.00000
    120      -2.3358      2.00000
    121      -2.3358      2.00000
    122      -2.3158      2.00000
    123      -2.3030      2.00000
    124      -2.3030      2.00000
    125      -2.2553      2.00000
    126      -2.2552      2.00000
    127      -2.2296      2.00000
    128      -2.2296      2.00000
    129      -2.1781      2.00000
    130      -2.1781      2.00000
    131      -2.0985      2.00000
    132      -2.0789      2.00000
    133      -2.0788      2.00000
    134      -2.0761      2.00000
    135      -2.0572      2.00000
    136      -2.0572      2.00000
    137      -2.0553      2.00000
    138      -2.0483      2.00000
    139      -2.0482      2.00000
    140      -1.9613      2.00000
    141      -1.9613      2.00000
    142      -1.9150      2.00000
    143      -1.8707      2.00000
    144      -1.8707      2.00000
    145      -1.8471      2.00000
    146      -1.8308      2.00000
    147      -1.8308      2.00000
    148      -1.8235      2.00000
    149      -1.8040      2.00000
    150      -1.7965      2.00000
    151      -1.7965      2.00000
    152      -1.7551      2.00000
    153      -1.7395      2.00000
    154      -1.7394      2.00000
    155      -1.7263      2.00000
    156      -1.7071      2.00000
    157      -1.7071      2.00000
    158      -1.6986      2.00000
    159      -1.6616      2.00000
    160      -1.6616      2.00000
    161      -1.6483      2.00000
    162      -1.6448      2.00000
    163      -1.5890      2.00000
    164      -1.5889      2.00000
    165      -1.5838      2.00000
    166      -1.5837      2.00000
    167      -1.5628      2.00000
    168      -1.5612      2.00000
    169      -1.5612      2.00000
    170      -1.5511      2.00000
    171      -1.5179      2.00000
    172      -1.5023      2.00000
    173      -1.5023      2.00000
    174      -1.4757      2.00000
    175      -1.4692      2.00000
    176      -1.4692      2.00000
    177      -1.4672      2.00000
    178      -1.4548      2.00000
    179      -1.4383      2.00000
    180      -1.4383      2.00000
    181      -1.3965      2.00000
    182      -1.3964      2.00000
    183      -1.3963      2.00000
    184      -1.3758      2.00000
    185      -1.3607      2.00000
    186      -1.3606      2.00000
    187      -1.2413      2.00000
    188      -1.2412      2.00000
    189      -1.2244      2.00000
    190      -1.1947      2.00000
    191      -1.1946      2.00000
    192      -1.1737      2.00000
    193      -1.1213      2.00000
    194      -1.1213      2.00000
    195      -0.3168      2.00000
    196       0.0403      2.00000
    197       0.0403      2.00000
    198       0.0697      2.00000
    199       0.1724      2.00000
    200       0.2123      2.00000
    201       0.2123      2.00000
    202       0.7619      0.00000
    203       0.7619      0.00000
    204       1.1240      0.00000
    205       2.0714      0.00000
    206       2.1579      0.00000
    207       2.1580      0.00000
    208       2.1827      0.00000
    209       2.2540      0.00000
    210       2.2542      0.00000
    211       2.8075      0.00000
    212       2.8075      0.00000
    213       3.4682      0.00000
    214       3.4752      0.00000
    215       3.4753      0.00000
    216       3.6687      0.00000
    217       3.8477      0.00000
    218       3.8477      0.00000
    219       4.0293      0.00000
    220       4.4819      0.00000
    221       5.0270      0.00000
    222       5.3192      0.00000
    223       5.3232      0.00000
    224       5.3232      0.00000
    225       5.3576      0.00000
    226       5.3577      0.00000
    227       5.5020      0.00000
    228       5.5660      0.00000
    229       5.5660      0.00000
    230       5.6695      0.00000
    231       5.6695      0.00000
    232       5.7790      0.00000
    233       5.8982      0.00000
    234       6.0865      0.00000
    235       6.9376      0.00000
    236       7.0011      0.00000
    237       7.0108      0.00000
    238       7.0111      0.00000
    239       7.0579      0.00000
    240       7.0582      0.00000
    241       7.0623      0.00000
    242       7.1680      0.00000
    243       7.1690      0.00000
    244       7.1842      0.00000
    245       7.2198      0.00000
    246       7.2252      0.00000
    247       7.3142      0.00000
    248       7.4332      0.00000
    249       7.4360      0.00000
    250       7.4608      0.00000
    251       7.5862      0.00000
    252       7.6250      0.00000

 k-point     2 :       0.1250   -0.0000    0.0000
  band No.  band energies     occupation 
      1     -12.3620      2.00000
      2      -8.0896      2.00000
      3      -6.9116      2.00000
      4      -6.2481      2.00000
      5      -6.0756      2.00000
      6      -6.0708      2.00000
      7      -5.9683      2.00000
      8      -5.9431      2.00000
      9      -5.8789      2.00000
     10      -5.8660      2.00000
     11      -5.8447      2.00000
     12      -5.5761      2.00000
     13      -5.5240      2.00000
     14      -5.5173      2.00000
     15      -5.5020      2.00000
     16      -5.4470      2.00000
     17      -5.4419      2.00000
     18      -5.2033      2.00000
     19      -5.1561      2.00000
     20      -5.1555      2.00000
     21      -5.1033      2.00000
     22      -5.0776      2.00000
     23      -5.0734      2.00000
     24      -5.0410      2.00000
     25      -4.9919      2.00000
     26      -4.9849      2.00000
     27      -4.9190      2.00000
     28      -4.9145      2.00000
     29      -4.8837      2.00000
     30      -4.8614      2.00000
     31      -4.8586      2.00000
     32      -4.8280      2.00000
     33      -4.8244      2.00000
     34      -4.8055      2.00000
     35      -4.7682      2.00000
     36      -4.7655      2.00000
     37      -4.6978      2.00000
     38      -4.6935      2.00000
     39      -4.6663      2.00000
     40      -4.6407      2.00000
     41      -4.6370      2.00000
     42      -4.3846      2.00000
     43      -4.3605      2.00000
     44      -4.3323      2.00000
     45      -4.3269      2.00000
     46      -4.3064      2.00000
     47      -4.2853      2.00000
     48      -4.2425      2.00000
     49      -4.1881      2.00000
     50      -4.1781      2.00000
     51      -4.1406      2.00000
     52      -4.0906      2.00000
     53      -4.0869      2.00000
     54      -4.0625      2.00000
     55      -4.0286      2.00000
     56      -3.8270      2.00000
     57      -3.7981      2.00000
     58      -3.7738      2.00000
     59      -3.7586      2.00000
     60      -3.7252      2.00000
     61      -3.7229      2.00000
     62      -3.7080      2.00000
     63      -3.6926      2.00000
     64      -3.6646      2.00000
     65      -3.6595      2.00000
     66      -3.6469      2.00000
     67      -3.6170      2.00000
     68      -3.6102      2.00000
     69      -3.5996      2.00000
     70      -3.5751      2.00000
     71      -3.5526      2.00000
     72      -3.5423      2.00000
     73      -3.5153      2.00000
     74      -3.5141      2.00000
     75      -3.5010      2.00000
     76      -3.4904      2.00000
     77      -3.4665      2.00000
     78      -3.4245      2.00000
     79      -3.4245      2.00000
     80      -3.4089      2.00000
     81      -3.3822      2.00000
     82      -3.3715      2.00000
     83      -3.3702      2.00000
     84      -3.3303      2.00000
     85      -3.3161      2.00000
     86      -3.2999      2.00000
     87      -3.2863      2.00000
     88      -3.2495      2.00000
     89      -3.2468      2.00000
     90      -3.2175      2.00000
     91      -3.2074      2.00000
     92      -3.1728      2.00000
     93      -3.1712      2.00000
     94      -3.1302      2.00000
     95      -3.1289      2.00000
     96      -3.0893      2.00000
     97      -3.0866      2.00000
     98      -2.9824      2.00000
     99      -2.9589      2.00000
    100      -2.9559      2.00000
    101      -2.8849      2.00000
    102      -2.8602      2.00000
    103      -2.8508      2.00000
    104      -2.8416      2.00000
    105      -2.8214      2.00000
    106      -2.8120      2.00000
    107      -2.7492      2.00000
    108      -2.6869      2.00000
    109      -2.6693      2.00000
    110      -2.6623      2.00000
    111      -2.6497      2.00000
    112      -2.6358      2.00000
    113      -2.6190      2.00000
    114      -2.6129      2.00000
    115      -2.5900      2.00000
    116      -2.5714      2.00000
    117      -2.5488      2.00000
    118      -2.5451      2.00000
    119      -2.5266      2.00000
    120      -2.5035      2.00000
    121      -2.4353      2.00000
    122      -2.4257      2.00000
    123      -2.3301      2.00000
    124      -2.3090      2.00000
    125      -2.3060      2.00000
    126      -2.2744      2.00000
    127      -2.2659      2.00000
    128      -2.2416      2.00000
    129      -2.2413      2.00000
    130      -2.2052      2.00000
    131      -2.2030      2.00000
    132      -2.1847      2.00000
    133      -2.1796      2.00000
    134      -2.1758      2.00000
    135      -2.0841      2.00000
    136      -2.0754      2.00000
    137      -2.0472      2.00000
    138      -2.0280      2.00000
    139      -2.0160      2.00000
    140      -1.9990      2.00000
    141      -1.9884      2.00000
    142      -1.9817      2.00000
    143      -1.9676      2.00000
    144      -1.9232      2.00000
    145      -1.8877      2.00000
    146      -1.8503      2.00000
    147      -1.8273      2.00000
    148      -1.8094      2.00000
    149      -1.7957      2.00000
    150      -1.7874      2.00000
    151      -1.7715      2.00000
    152      -1.7642      2.00000
    153      -1.7583      2.00000
    154      -1.7401      2.00000
    155      -1.7227      2.00000
    156      -1.6852      2.00000
    157      -1.6631      2.00000
    158      -1.6565      2.00000
    159      -1.6342      2.00000
    160      -1.6340      2.00000
    161      -1.6179      2.00000
    162      -1.5935      2.00000
    163      -1.5704      2.00000
    164      -1.5601      2.00000
    165      -1.5554      2.00000
    166      -1.5293      2.00000
[...]
  0.000   0.000   0.000   0.000   0.000   0.000   0.000   0.000   0.000   0.000   0.000   0.000   0.000   0.000   0.000   0.000
  0.000   0.000   0.000   0.000   0.000   0.000   0.000   0.000   0.000   0.000   0.000   0.000   0.000   0.000   0.000   0.000
  0.000   0.000   0.000   0.000   0.000   0.000   0.000   0.000   0.000   0.000   0.000   0.000   0.000   0.000   0.000   0.000
  0.000   0.000   0.000   0.000   0.000   0.000   0.000   0.000   0.000   0.000   0.000   0.000   0.000   0.000   0.000   0.000
  0.000   0.000   0.000   0.000   0.000   0.000   0.000   0.000   0.000   0.000   0.000   0.000   0.000   0.000   0.000   0.000
  0.000   0.000   0.000   0.000   0.000   0.000   0.000   0.000   0.000   0.000   1.000   0.000   0.000   0.000   0.000   0.000
  0.000   0.000   0.000   0.000   0.000   0.000   0.000   0.000   0.000   0.000   0.000   0.000   0.000   0.000   0.000   0.000
  0.000   0.000   0.000   0.000   0.000   0.000   0.000   0.000   0.000   0.000   0.000   0.000   0.000   0.000   0.000   0.000
  0.000   0.000   0.000   0.000   0.000   0.000   0.000   0.000   0.000   0.000   0.000   0.000   0.000   0.000   0.000   0.000
  0.000   0.000   0.000   0.000   0.000   0.000   0.000   0.000   0.000   0.000   0.000   0.000   0.000   0.000   0.000   0.000
  0.000   0.000   0.000   0.000   0.000   0.000   0.000   0.000   0.000   0.000   0.000   0.000   0.000   0.000   0.000   0.000
  0.000   0.000   0.000   0.000   0.000   0.000   0.000   0.000   0.000   0.000   0.000   0.000   0.000   0.000   0.000   0.000
  0.000   0.000   0.000   0.000   0.000   0.000   0.000   0.000   0.000   0.000   0.000   0.000   0.000   0.000   0.000   0.000


------------------------ aborting loop because EDIFF is reached ----------------------------------------





 total charge

# of ion       s       p       d       tot
------------------------------------------
    1        0.547   0.240   8.765   9.553
    2        0.544   0.241   8.764   9.550
    3        0.544   0.241   8.764   9.550
    4        0.544   0.241   8.764   9.550
    5        0.540   0.241   8.764   9.545
    6        0.544   0.241   8.764   9.550
    7        0.544   0.241   8.764   9.550
    8        0.544   0.241   8.764   9.550
    9        0.542   0.241   8.766   9.549
   10        0.518   0.308   8.772   9.599
   11        0.519   0.310   8.776   9.605
   12        0.518   0.308   8.772   9.599
   13        0.519   0.310   8.776   9.605
   14        0.519   0.310   8.776   9.605
   15        0.515   0.309   8.773   9.598
   16        0.518   0.308   8.772   9.599
   17        0.515   0.309   8.773   9.598
   18        0.515   0.309   8.773   9.598
   19        0.517   0.295   8.776   9.588
   20        0.553   0.333   8.750   9.636
   21        0.553   0.333   8.750   9.636
   22        0.510   0.309   8.772   9.591
   23        0.553   0.333   8.750   9.636
   24        0.510   0.309   8.772   9.591
   25        0.517   0.295   8.776   9.588
   26        0.517   0.295   8.776   9.588
   27        0.510   0.309   8.772   9.591
   28        0.544   0.228   8.757   9.529
   29        0.563   0.241   8.752   9.556
   30        0.563   0.241   8.752   9.556
   31        0.563   0.241   8.752   9.556
   32        0.563   0.241   8.752   9.556
   33        0.563   0.241   8.752   9.556
   34        0.563   0.241   8.752   9.556
   35        0.540   0.230   8.755   9.525
   36        0.479   0.544   4.495   5.518
   37        1.349   2.199   0.000   3.548
--------------------------------------------------
tot         20.580  12.412 311.262 344.254
 
    CHARGE:  cpu time    0.3365: real time    0.3367
    FORLOC:  cpu time    0.0101: real time    0.0101
    FORNL :  cpu time    1.4516: real time    1.4520
    STRESS:  cpu time    4.3513: real time    4.3526
    FORCOR:  cpu time    0.0451: real time    0.0453
    FORHAR:  cpu time    0.0167: real time    0.0167
    OFIELD:  cpu time    0.0003: real time    0.0003

  FORCE on cell =-STRESS in cart. coord.  units (eV):
  Direction    XX          YY          ZZ          XY          YZ          ZX
  --------------------------------------------------------------------------------------
  Alpha Z  1018.96412  1018.96412  1018.96412
  Ewald  117544.22581117544.22621************    -0.00032    -0.00009    -0.00014
  Hartree126155.91053126155.91054************     0.00000    -0.00002    -0.00004
  E(xc)   -1775.70602 -1775.70602 -1785.31516    -0.00001    -0.00000    -0.00000
  Local  ************************256102.10973     0.00192     0.00003     0.00003
  n-local   -99.49288   -54.08470   -53.13632    22.94160    -1.54101     1.39520
  augment  2374.22600  2374.22752  2392.04269    -0.00132    -0.00001     0.00004
  Kinetic  5510.92207  5519.87392  5562.61594     5.78561     0.32237     0.22730
  Fock        0.00000     0.00000     0.00000     0.00000     0.00000     0.00000
  -------------------------------------------------------------------------------------
  Total     -19.21571   -19.21571     2.60074    -0.00000     0.00000    -0.00000
  in kB     -20.61862   -20.61862     2.79062    -0.00000     0.00000    -0.00000
  external pressure =      -12.82 kB  Pullay stress =        0.00 kB


 VOLUME and BASIS-vectors are now :
 -----------------------------------------------------------------------------
  energy-cutoff  :      500.00
  volume of cell :     1493.16
      direct lattice vectors                 reciprocal lattice vectors
     8.813512802  0.000000000  0.000000000     0.113462137 -0.065507406  0.000000000
     4.406756909  7.632725690  0.000000000     0.000000000  0.131014796  0.000000000
     0.000000000  0.000000000 22.196203232     0.000000000  0.000000000  0.045052750

  length of vectors
     8.813512802  8.813512802 22.196203232     0.131014796  0.131014796  0.045052750


 FORCES acting on ions
    electron-ion (+dipol)            ewald-force                    non-local-force                 convergence-correction
 -----------------------------------------------------------------------------------------------
   -.195E-04 -.162E-04 0.247E+04   0.519E-04 0.433E-04 -.247E+04   0.780E-17 -.104E-16 -.556E+00   -.280E-03 -.175E-03 -.292E+00
   0.492E+00 0.929E-01 0.247E+04   -.584E+00 -.171E+00 -.247E+04   -.343E-01 0.639E-02 -.335E+00   0.125E+00 0.659E-01 -.289E+00
   -.492E+00 0.929E-01 0.247E+04   0.584E+00 -.171E+00 -.247E+04   0.343E-01 0.639E-02 -.335E+00   -.125E+00 0.679E-01 -.288E+00
   0.327E+00 0.380E+00 0.247E+04   -.440E+00 -.420E+00 -.247E+04   -.116E-01 -.329E-01 -.335E+00   0.120E+00 0.756E-01 -.289E+00
   0.863E-05 -.231E-04 0.247E+04   0.951E-04 0.174E-05 -.247E+04   0.144E-17 0.466E-18 -.417E+00   0.440E-02 0.267E-02 -.273E+00
   -.327E+00 0.380E+00 0.247E+04   0.440E+00 -.420E+00 -.247E+04   0.116E-01 -.329E-01 -.335E+00   -.122E+00 0.766E-01 -.288E+00
   -.166E+00 -.473E+00 0.247E+04   0.144E+00 0.591E+00 -.247E+04   0.227E-01 0.265E-01 -.335E+00   -.366E-02 -.142E+00 -.288E+00
   0.166E+00 -.473E+00 0.247E+04   -.144E+00 0.591E+00 -.247E+04   -.227E-01 0.265E-01 -.335E+00   0.558E-02 -.143E+00 -.288E+00
   0.195E-04 -.417E-04 0.247E+04   0.166E-03 -.200E-04 -.247E+04   0.492E-17 -.150E-17 -.464E+00   -.466E-02 -.241E-02 -.272E+00
   0.513E+01 0.296E+01 0.815E+03   -.518E+01 -.299E+01 -.815E+03   -.195E+00 -.113E+00 -.411E+00   0.204E+00 0.118E+00 0.246E+00
   0.141E-04 0.272E+01 0.821E+03   0.148E-03 -.300E+01 -.821E+03   0.128E-08 0.192E-01 -.443E+00   0.426E-02 0.189E+00 0.338E+00
   -.513E+01 0.296E+01 0.815E+03   0.518E+01 -.299E+01 -.815E+03   0.195E+00 -.113E+00 -.411E+00   -.206E+00 0.120E+00 0.247E+00
   0.236E+01 -.136E+01 0.821E+03   -.260E+01 0.150E+01 -.821E+03   0.166E-01 -.958E-02 -.443E+00   0.166E+00 -.903E-01 0.338E+00
   -.236E+01 -.136E+01 0.821E+03   0.260E+01 0.150E+01 -.821E+03   -.166E-01 -.958E-02 -.443E+00   -.157E+00 -.910E-01 0.339E+00
   0.314E-04 0.434E+01 0.819E+03   0.236E-03 -.455E+01 -.819E+03   0.294E-08 0.442E-01 -.352E+00   -.297E-02 0.113E+00 0.239E+00
   -.212E-04 -.593E+01 0.815E+03   0.162E-03 0.598E+01 -.815E+03   0.150E-07 0.226E+00 -.411E+00   0.398E-03 -.239E+00 0.247E+00
   0.376E+01 -.217E+01 0.819E+03   -.394E+01 0.228E+01 -.819E+03   0.383E-01 -.221E-01 -.352E+00   0.967E-01 -.587E-01 0.239E+00
   -.376E+01 -.217E+01 0.819E+03   0.394E+01 0.228E+01 -.819E+03   -.383E-01 -.221E-01 -.352E+00   -.966E-01 -.560E-01 0.240E+00
   -.428E-04 0.124E+00 -.863E+03   0.547E-04 -.499E+00 0.861E+03   0.300E-08 0.450E-01 0.703E+00   -.593E-02 0.269E+00 0.724E+00
   -.138E+01 -.796E+00 -.836E+03   0.139E+01 0.803E+00 0.836E+03   -.871E+00 -.503E+00 -.568E+00   0.533E+00 0.308E+00 0.116E+01
   0.138E+01 -.796E+00 -.836E+03   -.139E+01 0.803E+00 0.836E+03   0.871E+00 -.503E+00 -.568E+00   -.524E+00 0.310E+00 0.116E+01
   -.956E+01 0.552E+01 -.847E+03   0.885E+01 -.511E+01 0.845E+03   0.490E+00 -.283E+00 0.776E+00   0.270E+00 -.159E+00 0.727E+00
   -.983E-05 0.159E+01 -.836E+03   0.139E-03 -.161E+01 0.836E+03   0.669E-07 0.101E+01 -.568E+00   0.582E-02 -.609E+00 0.116E+01
   0.956E+01 0.552E+01 -.847E+03   -.885E+01 -.511E+01 0.845E+03   -.490E+00 -.283E+00 0.776E+00   -.278E+00 -.161E+00 0.727E+00
   -.108E+00 -.623E-01 -.863E+03   0.432E+00 0.250E+00 0.861E+03   -.390E-01 -.225E-01 0.703E+00   -.235E+00 -.136E+00 0.724E+00
   0.108E+00 -.622E-01 -.863E+03   -.432E+00 0.249E+00 0.861E+03   0.390E-01 -.225E-01 0.703E+00   0.230E+00 -.140E+00 0.724E+00
   0.990E-05 -.110E+02 -.847E+03   0.198E-03 0.102E+02 0.845E+03   0.377E-07 0.566E+00 0.776E+00   -.308E-02 0.313E+00 0.727E+00
   -.125E-04 -.121E-04 -.244E+04   0.288E-04 0.326E-04 0.244E+04   0.513E-18 0.161E-17 0.471E+00   -.314E-03 -.198E-03 0.625E+00
   0.168E+02 0.271E+02 -.244E+04   -.165E+02 -.268E+02 0.243E+04   -.890E+00 -.125E+01 0.630E+00   0.396E+00 0.581E+00 0.434E+00
   -.168E+02 0.271E+02 -.244E+04   0.165E+02 -.268E+02 0.243E+04   0.890E+00 -.125E+01 0.630E+00   -.396E+00 0.583E+00 0.433E+00
   0.319E+02 0.970E+00 -.244E+04   -.314E+02 -.852E+00 0.243E+04   -.152E+01 -.148E+00 0.630E+00   0.701E+00 0.529E-01 0.434E+00
   -.319E+02 0.970E+00 -.244E+04   0.314E+02 -.852E+00 0.243E+04   0.152E+01 -.148E+00 0.630E+00   -.703E+00 0.536E-01 0.432E+00
   0.151E+02 -.281E+02 -.244E+04   -.150E+02 0.277E+02 0.243E+04   -.634E+00 0.139E+01 0.630E+00   0.307E+00 -.634E+00 0.433E+00
   -.151E+02 -.281E+02 -.244E+04   0.150E+02 0.277E+02 0.243E+04   0.634E+00 0.139E+01 0.630E+00   -.305E+00 -.635E+00 0.432E+00
   0.328E-04 -.303E-04 -.244E+04   0.142E-03 -.482E-04 0.244E+04   -.272E-17 -.118E-17 0.556E+00   -.476E-02 -.245E-02 0.554E+00
   -.401E-05 -.651E-06 -.114E+04   0.625E-04 0.565E-05 0.114E+04   0.837E-17 0.458E-17 0.124E+01   0.128E-02 0.762E-03 0.280E+00
   0.105E-03 -.588E-04 -.133E+04   0.216E-04 0.134E-05 0.135E+04   -.412E-18 -.270E-18 -.203E+02   0.170E-02 0.103E-02 -.616E+00
 -----------------------------------------------------------------------------------------------
   -.674E-03 -.823E-03 0.800E+01   -.327E-13 0.277E-12 -.477E-11   -.217E-15 -.219E-15 -.186E+02   0.264E-03 0.763E-03 0.112E+02
 
 
 POSITION                                       TOTAL-FORCE (eV/Angst)
 -----------------------------------------------------------------------------------
      0.00000      0.00000      5.28038        -0.000000      0.000000     -0.099096
      2.93784      0.00000      5.28038         0.000287     -0.004242     -0.060642
      5.87568      0.00000      5.28038        -0.000287     -0.004242     -0.060642
      1.46892      2.54424      5.28038        -0.003530      0.002370     -0.060642
      4.40676      2.54424      5.28038        -0.000000      0.000000     -0.082281
      7.34459      2.54424      5.28038         0.003530      0.002370     -0.060642
      2.93784      5.08848      5.28038        -0.003817      0.001873     -0.060642
      5.87568      5.08848      5.28038         0.003817      0.001873     -0.060642
      8.81351      5.08848      5.28038        -0.000000      0.000000     -0.066475
      1.46892      0.84808      7.67911        -0.034918     -0.020160      0.114742
      4.40676      0.84808      7.67911        -0.000000     -0.072930      0.037062
      7.34459      0.84808      7.67911         0.034918     -0.020160      0.114742
      2.93784      3.39232      7.67911        -0.063159      0.036465      0.037062
      5.87568      3.39232      7.67911         0.063159      0.036465      0.037062
      8.81351      3.39232      7.67911        -0.000000     -0.052888      0.143259
      4.40676      5.93656      7.67911         0.000000      0.040320      0.114742
      7.34459      5.93656      7.67911        -0.045802      0.026444      0.143259
     10.28243      5.93656      7.67911         0.045802      0.026444      0.143259
      8.81351      1.70181     10.09390        -0.000000     -0.059328     -0.034683
      2.93906      1.69686     10.04479        -0.329613     -0.190302     -0.298139
      5.87446      1.69686     10.04479         0.329613     -0.190302     -0.298139
     10.26694      4.24935     10.06849         0.057023     -0.032922      0.000006
      4.40676      4.23900     10.04479         0.000000      0.380604     -0.298139
      7.36009      4.24935     10.06849        -0.057023     -0.032922      0.000006
     11.74646      6.78182     10.09390         0.051380      0.029664     -0.034683
      5.88057      6.78182     10.09390        -0.051380      0.029664     -0.034683
      8.81351      6.76675     10.06849         0.000000      0.065844      0.000006
      0.00000      0.00000     12.49934        -0.000000      0.000000     -0.050614
      2.98260      0.07565     12.53968        -0.175555     -0.350625     -0.238738
      5.83091      0.07565     12.53968         0.175555     -0.350625     -0.238738
      1.55682      2.54518     12.53968        -0.391428      0.023277     -0.238738
      7.25669      2.54518     12.53968         0.391428      0.023277     -0.238738
      2.98097      5.01189     12.53968        -0.215872      0.327348     -0.238738
      5.83254      5.01189     12.53968         0.215872      0.327348     -0.238738
      8.81351      5.08848     12.49853        -0.000000      0.000000      0.044693
      4.40676      2.54424     12.23451        -0.000000      0.000000      2.161310
      4.40676      2.54424     13.93975        -0.000000      0.000000      0.001997
 -----------------------------------------------------------------------------------
    total drift:                               -0.000409     -0.000060      0.547239


--------------------------------------------------------------------------------------------------------



  FREE ENERGIE OF THE ION-ELECTRON SYSTEM (eV)
  ---------------------------------------------------
  free  energy   TOTEN  =      -123.91032264 eV

  energy  without entropy=     -123.91032264  energy(sigma->0) =     -123.91032264
 


--------------------------------------------------------------------------------------------------------


    POTLOK:  cpu time    0.0523: real time    0.0523


--------------------------------------------------------------------------------------------------------


 stress matrix after NEB project (eV)
    -19.21571     -0.00000     -0.00000
     -0.00000    -19.21571      0.00000
     -0.00000      0.00000      2.60074
  FORCES: max atom, RMS     0.001997    0.000328
  FORCE total and by dimension    0.001997    0.001997
  Stress total and by dimension   27.299283   19.215711
     LOOP+:  cpu time   69.2171: real time   69.2483
 -----------------------------------------------------------------------------
|                                                                             |
|           W    W    AA    RRRRR   N    N  II  N    N   GGGG   !!!           |
|           W    W   A  A   R    R  NN   N  II  NN   N  G    G  !!!           |
|           W    W  A    A  R    R  N N  N  II  N N  N  G       !!!           |
|           W WW W  AAAAAA  RRRRR   N  N N  II  N  N N  G  GGG   !            |
|           WW  WW  A    A  R   R   N   NN  II  N   NN  G    G                |
|           W    W  A    A  R    R  N    N  II  N    N   GGGG   !!!           |
|                                                                             |
|     Tetrahedron method does not include variations of the Fermi             |
|     occupations, so forces and stress will be inaccurate. We suggest        |
|     using a different smearing scheme ISMEAR = 1 or 2 for metals in         |
|     relaxations.                                                            |
|                                                                             |
 -----------------------------------------------------------------------------

    4ORBIT:  cpu time    0.0000: real time    0.0000



 total charge

# of ion       s       p       d       tot
------------------------------------------
    1        0.547   0.240   8.765   9.553
    2        0.544   0.241   8.764   9.550
    3        0.544   0.241   8.764   9.550
    4        0.544   0.241   8.764   9.550
    5        0.540   0.241   8.764   9.545
    6        0.544   0.241   8.764   9.550
    7        0.544   0.241   8.764   9.550
    8        0.544   0.241   8.764   9.550
    9        0.542   0.241   8.766   9.549
   10        0.518   0.308   8.772   9.599
   11        0.519   0.310   8.776   9.605
   12        0.518   0.308   8.772   9.599
   13        0.519   0.310   8.776   9.605
   14        0.519   0.310   8.776   9.605
   15        0.515   0.309   8.773   9.598
   16        0.518   0.308   8.772   9.599
   17        0.515   0.309   8.773   9.598
   18        0.515   0.309   8.773   9.598
   19        0.517   0.295   8.776   9.588
   20        0.553   0.333   8.750   9.636
   21        0.553   0.333   8.750   9.636
   22        0.510   0.309   8.772   9.591
   23        0.553   0.333   8.750   9.636
   24        0.510   0.309   8.772   9.591
   25        0.517   0.295   8.776   9.588
   26        0.517   0.295   8.776   9.588
   27        0.510   0.309   8.772   9.591
   28        0.544   0.228   8.757   9.529
   29        0.563   0.241   8.752   9.556
   30        0.563   0.241   8.752   9.556
   31        0.563   0.241   8.752   9.556
   32        0.563   0.241   8.752   9.556
   33        0.563   0.241   8.752   9.556
   34        0.563   0.241   8.752   9.556
   35        0.540   0.230   8.755   9.525
   36        0.479   0.544   4.495   5.518
   37        1.349   2.199   0.000   3.548
--------------------------------------------------
tot         20.580  12.412 311.262 344.254
 
 BZINTS: Fermi energy:    0.671509;  396.000000 electrons
         Band energy:-0.123248E+04;  BLOECHL correction:   -0.044567

 total amount of memory used by VASP MPI-rank0   122663. kBytes
=======================================================================

   base      :      30000. kBytes
   nonlr-proj:      14278. kBytes
   fftplans  :       4330. kBytes
   grid      :      17879. kBytes
   one-center:        575. kBytes
   wavefun   :      55601. kBytes
 
  
  
 General timing and accounting informations for this job:
 ========================================================
  
                  Total CPU time used (sec):       76.551
                            User time (sec):       73.747
                          System time (sec):        2.804
                         Elapsed time (sec):       76.900
  
                   Maximum memory used (kb):      382736.
                   Average memory used (kb):          N/A
  
                          Minor page faults:        74880
                          Major page faults:            0
                 Voluntary context switches:         4680
