PROCAR new format
# of k-points:   10         # of bands:  252         # of ions:   37

 k-point     1 :    0.00000000 0.00000000 0.00000000     weight = 0.01562500

band     1 # energy  -12.36207822 # occ.  2.00000000
 
ion      s      p      d    tot
    1  0.000  0.000  0.000  0.000
    2  0.000  0.000  0.000  0.000
    3  0.000  0.000  0.000  0.000
    4  0.000  0.000  0.000  0.000
    5  0.000  0.000  0.000  0.000
    6  0.000  0.000  0.000  0.000
    7  0.000  0.000  0.000  0.000
    8  0.000  0.000  0.000  0.000
    9  0.000  0.000  0.000  0.000
   10  0.000  0.000  0.000  0.000
   11  0.000  0.000  0.000  0.000
   12  0.000  0.000  0.000  0.000
   13  0.000  0.000  0.000  0.000
   14  0.000  0.000  0.000  0.000
   15  0.000  0.000  0.000  0.000
   16  0.000  0.000  0.000  0.000
   17  0.000  0.000  0.000  0.000
   18  0.000  0.000  0.000  0.000
   19  0.000  0.000  0.000  0.000
   20  0.000  0.000  0.000  0.001
   21  0.000  0.000  0.000  0.001
   22  0.000  0.000  0.000  0.000
   23  0.000  0.000  0.000  0.001
   24  0.000  0.000  0.000  0.000
   25  0.000  0.000  0.000  0.000
   26  0.000  0.000  0.000  0.000
   27  0.000  0.000  0.000  0.000
   28  0.000  0.000  0.000  0.000
   29  0.000  0.000  0.000  0.000
   30  0.000  0.000  0.000  0.000
   31  0.000  0.000  0.000  0.000
   32  0.000  0.000  0.000  0.000
   33  0.000  0.000  0.000  0.000
   34  0.000  0.000  0.000  0.000
   35  0.000  0.000  0.000  0.000
   36  0.065  0.062  0.168  0.295
   37  0.627  0.016  0.000  0.643
tot    0.695  0.079  0.170  0.944
 
band     2 # energy   -8.14043815 # occ.  2.00000000
 
ion      s      p      d    tot
    1  0.007  0.001  0.000  0.007
    2  0.007  0.001  0.000  0.007
    3  0.007  0.001  0.000  0.007
    4  0.007  0.001  0.000  0.007
    5  0.007  0.001  0.000  0.007
    6  0.007  0.001  0.000  0.007
    7  0.007  0.001  0.000  0.007
    8  0.007  0.001  0.000  0.007
    9  0.006  0.001  0.000  0.007
   10  0.026  0.000  0.000  0.027
   11  0.028  0.000  0.000  0.028
   12  0.026  0.000  0.000  0.027
   13  0.028  0.000  0.000  0.028
   14  0.028  0.000  0.000  0.028
   15  0.026  0.000  0.000  0.026
   16  0.026  0.000  0.000  0.027
   17  0.026  0.000  0.000  0.026
   18  0.026  0.000  0.000  0.026
   19  0.023  0.000  0.000  0.023
   20  0.027  0.000  0.000  0.028
   21  0.027  0.000  0.000  0.028
   22  0.024  0.000  0.000  0.025
   23  0.027  0.000  0.000  0.028
   24  0.024  0.000  0.000  0.025
   25  0.023  0.000  0.000  0.023
   26  0.023  0.000  0.000  0.023
   27  0.024  0.000  0.000  0.025
   28  0.005  0.000  0.000  0.005
   29  0.004  0.000  0.000  0.005
   30  0.004  0.000  0.000  0.005
   31  0.004  0.000  0.000  0.005
   32  0.004  0.000  0.000  0.005
   33  0.004  0.000  0.000  0.005
   34  0.004  0.000  0.000  0.005
   35  0.005  0.000  0.000  0.005
   36  0.004  0.002  0.000  0.006
   37  0.001  0.000  0.000  0.001
tot    0.564  0.013  0.004  0.581
 
band     3 # energy   -6.96142190 # occ.  2.00000000
 
ion      s      p      d    tot
    1  0.017  0.000  0.001  0.019
    2  0.017  0.000  0.001  0.018
    3  0.017  0.000  0.001  0.018
    4  0.017  0.000  0.001  0.018
    5  0.016  0.000  0.001  0.018
    6  0.017  0.000  0.001  0.018
    7  0.017  0.000  0.001  0.018
    8  0.017  0.000  0.001  0.018
    9  0.017  0.000  0.001  0.018
   10  0.011  0.001  0.002  0.015
   11  0.010  0.002  0.003  0.014
   12  0.011  0.001  0.002  0.015
   13  0.010  0.002  0.003  0.014
   14  0.010  0.002  0.003  0.014
   15  0.010  0.001  0.002  0.014
   16  0.011  0.001  0.002  0.015
   17  0.010  0.001  0.002  0.014
   18  0.010  0.001  0.002  0.014
   19  0.014  0.001  0.004  0.018
   20  0.015  0.001  0.004  0.020
   21  0.015  0.001  0.004  0.020
   22  0.015  0.001  0.004  0.019
   23  0.015  0.001  0.004  0.020
   24  0.015  0.001  0.004  0.019
   25  0.014  0.001  0.004  0.018
   26  0.014  0.001  0.004  0.018
   27  0.015  0.001  0.004  0.019
   28  0.014  0.000  0.000  0.015
   29  0.014  0.001  0.001  0.015
   30  0.014  0.001  0.001  0.015
   31  0.014  0.001  0.001  0.015
   32  0.014  0.001  0.001  0.015
   33  0.014  0.001  0.001  0.015
   34  0.014  0.001  0.001  0.015
   35  0.014  0.000  0.000  0.015
   36  0.008  0.002  0.002  0.012
   37  0.002  0.000  0.000  0.002
tot    0.493  0.033  0.074  0.599
 
band     4 # energy   -6.05759990 # occ.  2.00000000
 
ion      s      p      d    tot
    1  0.000  0.000  0.007  0.007
    2  0.004  0.000  0.005  0.010
    3  0.004  0.000  0.005  0.010
    4  0.004  0.000  0.005  0.010
    5  0.001  0.000  0.003  0.004
    6  0.004  0.000  0.005  0.010
    7  0.004  0.000  0.005  0.010
    8  0.004  0.000  0.005  0.010
    9  0.021  0.001  0.001  0.023
   10  0.007  0.001  0.014  0.022
   11  0.008  0.002  0.006  0.016
   12  0.007  0.001  0.014  0.021
   13  0.008  0.002  0.006  0.016
   14  0.008  0.002  0.006  0.016
   15  0.009  0.001  0.007  0.017
   16  0.007  0.001  0.014  0.021
   17  0.009  0.001  0.007  0.017
   18  0.009  0.001  0.007  0.017
   19  0.000  0.001  0.019  0.021
   20  0.028  0.002  0.020  0.050
   21  0.028  0.002  0.020  0.050
   22  0.006  0.002  0.007  0.014
   23  0.028  0.002  0.020  0.050
   24  0.006  0.002  0.007  0.014
   25  0.000  0.001  0.019  0.021
   26  0.000  0.001  0.019  0.021
   27  0.006  0.002  0.007  0.014
   28  0.013  0.000  0.003  0.016
   29  0.010  0.000  0.009  0.019
   30  0.010  0.000  0.009  0.019
   31  0.010  0.000  0.009  0.019
   32  0.010  0.000  0.009  0.019
   33  0.010  0.000  0.009  0.019
   34  0.010  0.000  0.009  0.019
   35  0.024  0.000  0.004  0.028
   36  0.000  0.004  0.016  0.019
   37  0.001  0.002  0.000  0.003
tot    0.320  0.035  0.338  0.693
 
band     5 # energy   -6.03647851 # occ.  2.00000000
 
ion      s      p      d    tot
    1  0.000  0.000  0.008  0.008
    2  0.003  0.001  0.002  0.006
    3  0.001  0.000  0.003  0.004
    4  0.003  0.001  0.002  0.006
    5  0.000  0.001  0.006  0.007
    6  0.006  0.001  0.003  0.010
    7  0.001  0.000  0.003  0.004
    8  0.006  0.001  0.003  0.010
    9  0.000  0.000  0.001  0.001
   10  0.034  0.002  0.005  0.042
   11  0.012  0.003  0.021  0.036
   12  0.009  0.001  0.025  0.035
   13  0.012  0.003  0.021  0.036
   14  0.049  0.001  0.011  0.061
   15  0.000  0.002  0.006  0.009
   16  0.009  0.001  0.026  0.035
   17  0.000  0.002  0.006  0.009
   18  0.001  0.000  0.011  0.012
   19  0.002  0.003  0.005  0.011
   20  0.067  0.001  0.011  0.079
   21  0.017  0.002  0.032  0.051
   22  0.004  0.001  0.022  0.026
   23  0.017  0.002  0.032  0.050
   24  0.016  0.002  0.005  0.023
   25  0.010  0.000  0.013  0.024
   26  0.003  0.003  0.005  0.011
   27  0.004  0.001  0.022  0.027
   28  0.000  0.000  0.001  0.001
   29  0.006  0.001  0.004  0.012
   30  0.002  0.001  0.003  0.005
   31  0.006  0.001  0.004  0.012
   32  0.001  0.000  0.003  0.005
   33  0.002  0.001  0.003  0.005
   34  0.001  0.000  0.003  0.004
   35  0.000  0.000  0.004  0.004
   36  0.000  0.003  0.010  0.013
   37  0.000  0.000  0.000  0.000
tot    0.305  0.043  0.347  0.695
 
band     6 # energy   -6.03644483 # occ.  2.00000000
 
ion      s      p      d    tot
    1  0.000  0.000  0.008  0.008
    2  0.003  0.001  0.003  0.008
    3  0.006  0.001  0.003  0.009
    4  0.003  0.001  0.003  0.008
    5  0.000  0.001  0.006  0.007
    6  0.000  0.000  0.002  0.003
    7  0.006  0.001  0.003  0.009
    8  0.000  0.000  0.002  0.003
    9  0.000  0.000  0.001  0.001
   10  0.000  0.000  0.032  0.032
   11  0.037  0.001  0.015  0.053
   12  0.026  0.002  0.012  0.040
   13  0.037  0.002  0.015  0.053
   14  0.000  0.004  0.024  0.028
   15  0.001  0.001  0.009  0.011
   16  0.026  0.002  0.012  0.040
   17  0.001  0.001  0.009  0.011
   18  0.000  0.003  0.004  0.008
   19  0.008  0.001  0.011  0.019
   20  0.000  0.002  0.039  0.041
   21  0.050  0.001  0.018  0.070
   22  0.012  0.001  0.011  0.024
   23  0.051  0.001  0.018  0.070
   24  0.000  0.000  0.027  0.028
   25  0.000  0.004  0.003  0.007
   26  0.008  0.001  0.011  0.019
   27  0.012  0.001  0.010  0.024
   28  0.000  0.000  0.001  0.001
   29  0.000  0.000  0.002  0.003
   30  0.005  0.001  0.004  0.009
   31  0.000  0.000  0.002  0.003
   32  0.005  0.001  0.004  0.010
   33  0.005  0.001  0.004  0.009
   34  0.005  0.001  0.004  0.010
   35  0.000  0.000  0.004  0.004
   36  0.000  0.003  0.010  0.013
   37  0.000  0.000  0.000  0.000
tot    0.305  0.043  0.347  0.695
 
band     7 # energy   -6.00687820 # occ.  2.00000000
 
ion      s      p      d    tot
    1  0.026  0.000  0.015  0.041
    2  0.017  0.000  0.018  0.035
    3  0.017  0.000  0.018  0.035
    4  0.017  0.000  0.018  0.035
    5  0.016  0.000  0.019  0.036
    6  0.017  0.000  0.018  0.035
    7  0.017  0.000  0.018  0.035
    8  0.017  0.000  0.018  0.035
    9  0.010  0.000  0.019  0.029
   10  0.002  0.000  0.031  0.033
   11  0.007  0.000  0.025  0.032
   12  0.002  0.000  0.031  0.033
   13  0.007  0.000  0.025  0.032
   14  0.007  0.000  0.025  0.032
   15  0.017  0.001  0.020  0.038
   16  0.002  0.000  0.031  0.033
   17  0.017  0.001  0.020  0.038
   18  0.017  0.001  0.020  0.038
   19  0.002  0.000  0.007  0.009
   20  0.005  0.000  0.012  0.017
   21  0.005  0.000  0.012  0.017
   22  0.001  0.001  0.007  0.008
   23  0.005  0.000  0.012  0.017
   24  0.001  0.001  0.007  0.008
   25  0.002  0.000  0.007  0.009
   26  0.002  0.000  0.007  0.009
   27  0.001  0.001  0.007  0.008
   28  0.000  0.000  0.000  0.000
   29  0.000  0.000  0.001  0.001
   30  0.000  0.000  0.001  0.001
   31  0.000  0.000  0.001  0.001
   32  0.000  0.000  0.001  0.001
   33  0.000  0.000  0.001  0.001
   34  0.000  0.000  0.001  0.001
   35  0.001  0.000  0.000  0.001
   36  0.001  0.001  0.001  0.003
   37  0.000  0.000  0.000  0.001
tot    0.255  0.010  0.472  0.737
 
band     8 # energy   -5.96879743 # occ.  2.00000000
 
ion      s      p      d    tot
    1  0.007  0.001  0.001  0.009
    2  0.000  0.001  0.006  0.007
    3  0.000  0.001  0.006  0.007
    4  0.000  0.001  0.006  0.007
    5  0.018  0.002  0.001  0.021
    6  0.000  0.001  0.006  0.007
    7  0.000  0.001  0.006  0.007
    8  0.000  0.001  0.006  0.007
    9  0.000  0.000  0.002  0.002
   10  0.025  0.003  0.001  0.029
   11  0.021  0.001  0.022  0.044
   12  0.024  0.003  0.001  0.029
   13  0.021  0.001  0.022  0.044
   14  0.021  0.001  0.022  0.044
   15  0.001  0.001  0.024  0.025
   16  0.024  0.003  0.001  0.029
   17  0.001  0.001  0.024  0.025
   18  0.000  0.001  0.024  0.025
   19  0.025  0.002  0.005  0.032
   20  0.005  0.002  0.019  0.027
   21  0.005  0.002  0.019  0.027
   22  0.008  0.000  0.027  0.035
   23  0.005  0.002  0.019  0.027
   24  0.008  0.000  0.027  0.035
   25  0.025  0.002  0.005  0.032
   26  0.025  0.002  0.005  0.032
   27  0.008  0.000  0.027  0.035
   28  0.012  0.001  0.001  0.014
   29  0.000  0.000  0.004  0.004
   30  0.000  0.000  0.004  0.004
   31  0.000  0.000  0.004  0.004
   32  0.000  0.000  0.004  0.004
   33  0.000  0.000  0.004  0.004
   34  0.000  0.000  0.004  0.004
   35  0.004  0.001  0.002  0.007
   36  0.000  0.000  0.000  0.001
   37  0.000  0.000  0.000  0.000
tot    0.295  0.039  0.361  0.696
 
band     9 # energy   -5.94719190 # occ.  2.00000000
 
ion      s      p      d    tot
    1  0.004  0.000  0.000  0.005
    2  0.000  0.000  0.002  0.003
    3  0.000  0.000  0.002  0.003
    4  0.000  0.000  0.002  0.003
    5  0.003  0.000  0.000  0.003
    6  0.000  0.000  0.002  0.003
    7  0.000  0.000  0.002  0.003
    8  0.000  0.000  0.002  0.003
    9  0.003  0.001  0.001  0.005
   10  0.003  0.000  0.013  0.017
   11  0.004  0.001  0.005  0.010
   12  0.003  0.000  0.014  0.017
   13  0.004  0.001  0.005  0.010
   14  0.004  0.001  0.005  0.010
   15  0.012  0.001  0.006  0.019
   16  0.003  0.000  0.014  0.017
   17  0.012  0.001  0.006  0.019
   18  0.012  0.001  0.006  0.020
   19  0.004  0.001  0.016  0.021
   20  0.000  0.000  0.033  0.033
   21  0.000  0.000  0.033  0.033
   22  0.020  0.002  0.012  0.034
   23  0.000  0.000  0.033  0.033
   24  0.019  0.002  0.012  0.034
   25  0.004  0.001  0.016  0.021
   26  0.004  0.001  0.016  0.021
   27  0.020  0.002  0.012  0.034
   28  0.014  0.000  0.017  0.031
   29  0.018  0.000  0.015  0.033
   30  0.018  0.000  0.015  0.033
   31  0.018  0.000  0.015  0.033
   32  0.018  0.000  0.015  0.033
   33  0.018  0.000  0.015  0.033
   34  0.018  0.000  0.015  0.033
   35  0.009  0.000  0.016  0.025
   36  0.015  0.000  0.015  0.030
   37  0.001  0.000  0.000  0.001
tot    0.287  0.023  0.412  0.722
 
band    10 # energy   -5.94359239 # occ.  2.00000000
 
ion      s      p      d    tot
    1  0.000  0.001  0.003  0.004
    2  0.003  0.001  0.003  0.007
    3  0.000  0.000  0.004  0.004
    4  0.005  0.001  0.003  0.009
    5  0.000  0.000  0.005  0.005
    6  0.008  0.001  0.004  0.014
    7  0.001  0.001  0.004  0.005
    8  0.007  0.001  0.004  0.013
    9  0.000  0.001  0.011  0.012
   10  0.000  0.005  0.004  0.009
   11  0.007  0.001  0.011  0.019
   12  0.016  0.002  0.012  0.030
   13  0.006  0.001  0.014  0.021
   14  0.000  0.001  0.025  0.027
   15  0.052  0.001  0.012  0.065
   16  0.021  0.001  0.014  0.036
   17  0.041  0.001  0.018  0.061
   18  0.001  0.001  0.042  0.043
   19  0.033  0.002  0.009  0.043
   20  0.000  0.002  0.012  0.014
   21  0.000  0.001  0.013  0.015
   22  0.024  0.002  0.013  0.038
   23  0.000  0.001  0.014  0.015
   24  0.000  0.004  0.016  0.020
   25  0.000  0.000  0.036  0.036
   26  0.026  0.001  0.014  0.042
   27  0.029  0.001  0.012  0.043
   28  0.000  0.000  0.006  0.007
   29  0.004  0.001  0.002  0.008
   30  0.003  0.000  0.003  0.006
   31  0.004  0.001  0.002  0.007
   32  0.001  0.000  0.001  0.002
   33  0.002  0.000  0.002  0.004
   34  0.000  0.000  0.002  0.002
   35  0.000  0.001  0.004  0.005
   36  0.000  0.000  0.001  0.001
   37  0.000  0.000  0.000  0.000
tot    0.297  0.041  0.355  0.693
 
band    11 # energy   -5.94358920 # occ.  2.00000000
 
ion      s      p      d    tot
    1  0.000  0.001  0.003  0.004
    2  0.005  0.001  0.004  0.010
    3  0.008  0.001  0.004  0.013
    4  0.003  0.001  0.004  0.008
    5  0.000  0.000  0.005  0.005
    6  0.000  0.000  0.003  0.004
    7  0.007  0.001  0.004  0.012
    8  0.001  0.000  0.003  0.005
    9  0.000  0.001  0.011  0.012
   10  0.024  0.000  0.017  0.041
   11  0.002  0.001  0.022  0.025
   12  0.009  0.003  0.008  0.019
   13  0.003  0.001  0.019  0.024
   14  0.009  0.001  0.008  0.018
   15  0.011  0.001  0.036  0.048
   16  0.004  0.004  0.006  0.014
   17  0.021  0.001  0.030  0.052
   18  0.062  0.002  0.006  0.069
   19  0.007  0.001  0.030  0.038
   20  0.000  0.001  0.014  0.015
   21  0.000  0.002  0.013  0.015
   22  0.012  0.003  0.015  0.029
   23  0.000  0.002  0.012  0.014
   24  0.036  0.001  0.012  0.048
   25  0.039  0.002  0.003  0.045
   26  0.013  0.001  0.025  0.039
   27  0.006  0.003  0.015  0.025
   28  0.000  0.000  0.006  0.007
   29  0.000  0.000  0.002  0.002
   30  0.002  0.000  0.002  0.004
   31  0.000  0.000  0.002  0.003
   32  0.004  0.001  0.003  0.007
   33  0.003  0.001  0.002  0.005
   34  0.004  0.001  0.003  0.008
   35  0.000  0.001  0.004  0.005
   36  0.000  0.000  0.001  0.001
   37  0.000  0.000  0.000  0.000
tot    0.297  0.041  0.355  0.693
 
band    12 # energy   -5.54727784 # occ.  2.00000000
 
ion      s      p      d    tot
    1  0.000  0.001  0.004  0.005
    2  0.001  0.001  0.005  0.006
    3  0.009  0.001  0.004  0.015
    4  0.001  0.001  0.005  0.006
    5  0.000  0.001  0.010  0.011
    6  0.004  0.001  0.004  0.009
    7  0.009  0.001  0.004  0.015
    8  0.004  0.001  0.004  0.009
    9  0.000  0.000  0.008  0.008
   10  0.000  0.001  0.050  0.051
   11  0.018  0.001  0.020  0.039
   12  0.007  0.001  0.019  0.028
   13  0.018  0.001  0.020  0.039
   14  0.000  0.000  0.049  0.049
   15  0.002  0.000  0.019  0.021
   16  0.007  0.001  0.019  0.028
   17  0.002  0.000  0.019  0.021
   18  0.000  0.001  0.011  0.013
   19  0.003  0.000  0.017  0.021
   20  0.000  0.000  0.083  0.083
   21  0.015  0.001  0.026  0.042
   22  0.004  0.001  0.019  0.023
   23  0.015  0.001  0.026  0.042
   24  0.000  0.001  0.032  0.033
   25  0.000  0.001  0.010  0.011
   26  0.003  0.000  0.017  0.021
   27  0.004  0.001  0.019  0.023
   28  0.000  0.000  0.007  0.008
   29  0.003  0.001  0.005  0.009
   30  0.008  0.001  0.005  0.015
   31  0.003  0.001  0.005  0.009
   32  0.001  0.001  0.004  0.005
   33  0.008  0.001  0.005  0.015
   34  0.001  0.001  0.004  0.005
   35  0.000  0.000  0.002  0.003
   36  0.000  0.003  0.009  0.012
   37  0.000  0.000  0.000  0.000
tot    0.152  0.030  0.569  0.752
 
band    13 # energy   -5.54723398 # occ.  2.00000000
 
ion      s      p      d    tot
    1  0.000  0.001  0.004  0.005
    2  0.009  0.001  0.004  0.014
    3  0.000  0.000  0.004  0.005
    4  0.009  0.001  0.004  0.014
    5  0.000  0.001  0.010  0.011
    6  0.005  0.001  0.005  0.011
    7  0.000  0.000  0.004  0.005
    8  0.005  0.001  0.005  0.011
    9  0.000  0.000  0.008  0.008
   10  0.010  0.002  0.008  0.020
   11  0.006  0.000  0.039  0.046
   12  0.002  0.001  0.040  0.043
   13  0.006  0.000  0.039  0.046
   14  0.024  0.001  0.011  0.035
   15  0.001  0.001  0.014  0.016
   16  0.002  0.001  0.040  0.043
   17  0.001  0.001  0.014  0.016
   18  0.002  0.000  0.022  0.024
   19  0.001  0.001  0.012  0.014
   20  0.020  0.001  0.007  0.028
   21  0.005  0.000  0.064  0.069
   22  0.001  0.001  0.028  0.030
   23  0.005  0.000  0.064  0.069
   24  0.005  0.001  0.014  0.020
   25  0.005  0.000  0.020  0.025
   26  0.001  0.001  0.012  0.014
   27  0.001  0.001  0.028  0.030
   28  0.000  0.000  0.007  0.008
   29  0.005  0.001  0.004  0.010
   30  0.000  0.000  0.004  0.004
   31  0.005  0.001  0.004  0.010
   32  0.007  0.001  0.005  0.014
   33  0.000  0.000  0.004  0.004
   34  0.007  0.001  0.005  0.014
   35  0.000  0.000  0.002  0.003
   36  0.000  0.003  0.009  0.012
   37  0.000  0.000  0.000  0.000
tot    0.152  0.030  0.569  0.752
 
band    14 # energy   -5.53952886 # occ.  2.00000000
 
ion      s      p      d    tot
    1  0.014  0.002  0.002  0.018
    2  0.000  0.001  0.008  0.008
    3  0.000  0.001  0.008  0.008
    4  0.000  0.001  0.008  0.008
    5  0.000  0.000  0.002  0.002
    6  0.000  0.001  0.008  0.008
    7  0.000  0.001  0.008  0.008
    8  0.000  0.001  0.008  0.008
    9  0.015  0.001  0.000  0.017
   10  0.011  0.001  0.014  0.026
   11  0.003  0.000  0.046  0.048
   12  0.011  0.001  0.014  0.026
   13  0.003  0.000  0.046  0.048
   14  0.003  0.000  0.045  0.048
   15  0.004  0.001  0.020  0.025
   16  0.011  0.001  0.014  0.026
   17  0.004  0.001  0.020  0.025
   18  0.004  0.001  0.020  0.025
   19  0.003  0.001  0.011  0.016
   20  0.001  0.000  0.055  0.056
   21  0.001  0.000  0.055  0.056
   22  0.011  0.001  0.020  0.031
   23  0.001  0.000  0.055  0.056
   24  0.011  0.001  0.020  0.031
   25  0.003  0.001  0.011  0.016
   26  0.003  0.001  0.011  0.016
   27  0.011  0.001  0.020  0.031
   28  0.013  0.001  0.000  0.014
   29  0.000  0.000  0.006  0.007
   30  0.000  0.000  0.006  0.006
   31  0.000  0.000  0.006  0.007
   32  0.000  0.000  0.006  0.006
   33  0.000  0.000  0.006  0.006
   34  0.000  0.000  0.006  0.006
   35  0.005  0.001  0.003  0.010
   36  0.001  0.000  0.002  0.002
   37  0.000  0.000  0.000  0.000
tot    0.144  0.026  0.588  0.758
 
band    15 # energy   -5.47495557 # occ.  2.00000000
 
ion      s      p      d    tot
    1  0.007  0.000  0.001  0.008
    2  0.000  0.001  0.008  0.009
    3  0.000  0.001  0.008  0.009
    4  0.000  0.001  0.008  0.009
    5  0.017  0.002  0.000  0.020
    6  0.000  0.001  0.008  0.009
    7  0.000  0.001  0.008  0.009
    8  0.000  0.001  0.008  0.009
    9  0.003  0.001  0.002  0.006
   10  0.000  0.000  0.042  0.042
   11  0.007  0.002  0.009  0.017
   12  0.000  0.000  0.042  0.042
   13  0.007  0.002  0.009  0.017
   14  0.007  0.002  0.009  0.017
   15  0.008  0.001  0.025  0.034
   16  0.000  0.000  0.042  0.042
   17  0.008  0.001  0.025  0.034
   18  0.008  0.001  0.025  0.034
   19  0.011  0.001  0.038  0.050
   20  0.009  0.002  0.010  0.021
   21  0.009  0.002  0.010  0.021
   22  0.000  0.000  0.038  0.038
   23  0.009  0.002  0.010  0.021
   24  0.000  0.000  0.037  0.038
   25  0.011  0.001  0.038  0.050
   26  0.011  0.001  0.038  0.050
   27  0.000  0.000  0.038  0.038
   28  0.001  0.001  0.007  0.008
   29  0.000  0.000  0.006  0.006
   30  0.000  0.000  0.006  0.006
   31  0.000  0.000  0.006  0.006
   32  0.000  0.000  0.006  0.006
   33  0.000  0.000  0.006  0.006
   34  0.000  0.000  0.006  0.006
   35  0.001  0.000  0.000  0.002
   36  0.012  0.004  0.000  0.017
   37  0.001  0.001  0.000  0.002
tot    0.151  0.032  0.578  0.762
 
band    16 # energy   -5.46594991 # occ.  2.00000000
 
ion      s      p      d    tot
    1  0.000  0.001  0.014  0.015
    2  0.009  0.001  0.004  0.015
    3  0.001  0.000  0.005  0.006
    4  0.009  0.001  0.004  0.015
    5  0.000  0.000  0.006  0.006
    6  0.004  0.001  0.005  0.010
    7  0.001  0.000  0.005  0.006
    8  0.004  0.001  0.005  0.010
    9  0.000  0.001  0.006  0.007
   10  0.000  0.001  0.031  0.032
   11  0.000  0.001  0.020  0.021
   12  0.009  0.000  0.021  0.030
   13  0.000  0.001  0.020  0.021
   14  0.000  0.001  0.017  0.018
   15  0.010  0.002  0.020  0.032
   16  0.008  0.000  0.021  0.030
   17  0.010  0.002  0.020  0.032
   18  0.000  0.000  0.061  0.061
   19  0.014  0.001  0.020  0.035
   20  0.000  0.002  0.022  0.024
   21  0.000  0.001  0.025  0.026
   22  0.017  0.001  0.020  0.038
   23  0.000  0.001  0.025  0.026
   24  0.000  0.001  0.030  0.031
   25  0.000  0.000  0.067  0.067
   26  0.014  0.001  0.020  0.035
   27  0.017  0.001  0.020  0.038
   28  0.000  0.001  0.005  0.006
   29  0.005  0.001  0.004  0.010
   30  0.000  0.000  0.005  0.006
   31  0.005  0.001  0.004  0.010
   32  0.005  0.001  0.003  0.008
   33  0.000  0.000  0.005  0.006
   34  0.005  0.001  0.003  0.008
   35  0.000  0.001  0.008  0.009
   36  0.000  0.000  0.002  0.002
   37  0.000  0.000  0.000  0.000
tot    0.149  0.028  0.573  0.750
 
band    17 # energy   -5.46591519 # occ.  2.00000000
 
ion      s      p      d    tot
    1  0.000  0.001  0.014  0.015
    2  0.000  0.001  0.005  0.006
    3  0.009  0.001  0.005  0.014
    4  0.000  0.001  0.005  0.006
    5  0.000  0.000  0.006  0.006
    6  0.005  0.001  0.004  0.011
    7  0.009  0.001  0.005  0.014
    8  0.005  0.001  0.004  0.011
    9  0.000  0.001  0.006  0.007
   10  0.011  0.000  0.018  0.030
   11  0.000  0.001  0.018  0.019
   12  0.003  0.001  0.028  0.031
   13  0.000  0.001  0.018  0.019
   14  0.000  0.001  0.021  0.022
   15  0.003  0.001  0.047  0.051
   16  0.003  0.001  0.028  0.031
   17  0.003  0.001  0.047  0.051
   18  0.014  0.002  0.006  0.022
   19  0.005  0.001  0.051  0.056
   20  0.000  0.000  0.026  0.026
   21  0.000  0.001  0.023  0.024
   22  0.006  0.001  0.027  0.033
   23  0.000  0.001  0.023  0.024
   24  0.022  0.001  0.017  0.040
   25  0.019  0.001  0.004  0.024
   26  0.005  0.001  0.051  0.056
   27  0.006  0.001  0.027  0.033
   28  0.000  0.001  0.005  0.006
   29  0.001  0.000  0.004  0.006
   30  0.007  0.001  0.003  0.010
   31  0.001  0.000  0.004  0.006
   32  0.002  0.001  0.005  0.008
   33  0.007  0.001  0.003  0.010
   34  0.002  0.001  0.005  0.008
   35  0.000  0.001  0.008  0.009
   36  0.000  0.000  0.002  0.003
   37  0.000  0.000  0.000  0.000
tot    0.149  0.028  0.573  0.750
 
band    18 # energy   -5.16620785 # occ.  2.00000000
 
ion      s      p      d    tot
    1  0.000  0.000  0.018  0.018
    2  0.002  0.001  0.007  0.010
    3  0.002  0.000  0.011  0.014
    4  0.002  0.001  0.007  0.010
    5  0.000  0.001  0.018  0.019
    6  0.008  0.001  0.008  0.017
    7  0.002  0.000  0.011  0.014
    8  0.008  0.001  0.008  0.017
    9  0.000  0.001  0.003  0.004
   10  0.000  0.001  0.022  0.023
   11  0.000  0.000  0.055  0.055
   12  0.000  0.000  0.013  0.013
   13  0.000  0.000  0.055  0.055
   14  0.001  0.000  0.051  0.052
   15  0.000  0.000  0.013  0.013
   16  0.000  0.000  0.013  0.013
   17  0.000  0.000  0.013  0.013
   18  0.000  0.000  0.023  0.024
   19  0.000  0.000  0.008  0.009
   20  0.001  0.000  0.089  0.091
   21  0.000  0.000  0.058  0.058
   22  0.000  0.000  0.026  0.026
   23  0.000  0.000  0.058  0.058
   24  0.001  0.000  0.020  0.021
   25  0.000  0.000  0.015  0.015
   26  0.000  0.000  0.008  0.008
   27  0.000  0.000  0.026  0.026
   28  0.000  0.001  0.005  0.006
   29  0.009  0.001  0.016  0.026
   30  0.001  0.000  0.010  0.011
   31  0.009  0.001  0.016  0.026
   32  0.004  0.001  0.007  0.011
   33  0.001  0.000  0.010  0.011
   34  0.004  0.001  0.007  0.011
   35  0.000  0.000  0.018  0.018
   36  0.000  0.003  0.010  0.013
   37  0.000  0.000  0.000  0.000
tot    0.059  0.016  0.757  0.832
 
band    19 # energy   -5.16617027 # occ.  2.00000000
 
ion      s      p      d    tot
    1  0.000  0.000  0.018  0.018
    2  0.006  0.000  0.011  0.017
    3  0.006  0.001  0.007  0.014
    4  0.006  0.000  0.011  0.017
    5  0.000  0.001  0.018  0.019
    6  0.000  0.000  0.010  0.010
    7  0.006  0.001  0.007  0.014
    8  0.000  0.000  0.010  0.010
    9  0.000  0.001  0.003  0.004
   10  0.000  0.000  0.010  0.010
   11  0.000  0.000  0.052  0.053
   12  0.000  0.000  0.019  0.020
   13  0.000  0.000  0.052  0.053
   14  0.000  0.000  0.056  0.056
   15  0.000  0.000  0.020  0.020
   16  0.000  0.000  0.019  0.019
   17  0.000  0.000  0.020  0.020
   18  0.000  0.000  0.009  0.009
   19  0.000  0.000  0.013  0.013
   20  0.000  0.000  0.047  0.048
   21  0.001  0.000  0.079  0.080
   22  0.001  0.000  0.022  0.023
   23  0.001  0.000  0.079  0.080
   24  0.000  0.000  0.028  0.028
   25  0.000  0.000  0.006  0.006
   26  0.000  0.000  0.013  0.013
   27  0.001  0.000  0.022  0.023
   28  0.000  0.001  0.005  0.006
   29  0.000  0.000  0.006  0.007
   30  0.008  0.001  0.011  0.021
   31  0.000  0.000  0.006  0.007
   32  0.005  0.001  0.015  0.021
   33  0.008  0.001  0.011  0.021
   34  0.005  0.001  0.015  0.021
   35  0.000  0.000  0.018  0.018
   36  0.000  0.003  0.010  0.013
   37  0.000  0.000  0.000  0.000
tot    0.059  0.016  0.757  0.832
 
band    20 # energy   -5.15492192 # occ.  2.00000000
 
ion      s      p      d    tot
    1  0.007  0.000  0.005  0.012
    2  0.000  0.001  0.008  0.009
    3  0.000  0.001  0.008  0.009
    4  0.000  0.001  0.008  0.009
    5  0.002  0.001  0.008  0.011
    6  0.000  0.001  0.008  0.009
    7  0.000  0.001  0.008  0.009
    8  0.000  0.001  0.008  0.009
    9  0.015  0.001  0.000  0.016
   10  0.000  0.000  0.021  0.022
   11  0.000  0.001  0.046  0.047
   12  0.000  0.000  0.021  0.022
   13  0.000  0.001  0.046  0.047
   14  0.000  0.001  0.046  0.047
   15  0.000  0.000  0.026  0.026
   16  0.000  0.000  0.021  0.022
   17  0.000  0.000  0.026  0.026
   18  0.000  0.000  0.026  0.026
   19  0.000  0.000  0.019  0.019
   20  0.001  0.000  0.051  0.052
   21  0.001  0.000  0.051  0.052
   22  0.000  0.000  0.031  0.032
   23  0.001  0.000  0.051  0.052
   24  0.000  0.000  0.031  0.031
   25  0.000  0.000  0.019  0.019
   26  0.000  0.000  0.019  0.019
   27  0.000  0.000  0.031  0.032
   28  0.002  0.000  0.002  0.005
   29  0.000  0.001  0.016  0.017
   30  0.000  0.001  0.016  0.017
   31  0.000  0.001  0.016  0.017
   32  0.000  0.001  0.016  0.017
   33  0.000  0.001  0.016  0.017
   34  0.000  0.001  0.016  0.017
   35  0.020  0.001  0.002  0.022
   36  0.002  0.000  0.012  0.015
   37  0.000  0.001  0.000  0.002
tot    0.054  0.018  0.757  0.829
 
band    21 # energy   -5.12012543 # occ.  2.00000000
 
ion      s      p      d    tot
    1  0.004  0.001  0.002  0.006
    2  0.000  0.001  0.019  0.020
    3  0.000  0.001  0.019  0.019
    4  0.000  0.001  0.019  0.020
    5  0.022  0.001  0.004  0.027
    6  0.000  0.001  0.019  0.020
    7  0.000  0.001  0.019  0.019
    8  0.000  0.001  0.019  0.020
    9  0.009  0.000  0.012  0.021
   10  0.000  0.000  0.031  0.031
   11  0.000  0.000  0.024  0.025
   12  0.000  0.000  0.031  0.031
   13  0.000  0.000  0.024  0.025
   14  0.000  0.000  0.025  0.025
   15  0.000  0.000  0.034  0.034
   16  0.000  0.000  0.031  0.031
   17  0.000  0.000  0.034  0.034
   18  0.000  0.000  0.034  0.034
   19  0.000  0.000  0.026  0.026
   20  0.000  0.000  0.024  0.025
   21  0.000  0.000  0.025  0.025
   22  0.001  0.000  0.020  0.022
   23  0.000  0.000  0.025  0.025
   24  0.001  0.000  0.020  0.022
   25  0.000  0.000  0.026  0.026
   26  0.000  0.000  0.026  0.026
   27  0.001  0.000  0.020  0.022
   28  0.017  0.000  0.007  0.025
   29  0.000  0.000  0.020  0.020
   30  0.000  0.000  0.020  0.020
   31  0.000  0.000  0.020  0.020
   32  0.000  0.000  0.020  0.020
   33  0.000  0.000  0.020  0.020
   34  0.000  0.000  0.020  0.020
   35  0.004  0.000  0.006  0.011
   36  0.004  0.001  0.000  0.005