PROCAR new format
# of k-points:   10         # of bands:  252         # of ions:   37

 k-point     1 :    0.00000000 0.00000000 0.00000000     weight = 0.01562500

band     1 # energy  -47.87883254 # occ.  2.00000000
 
ion      s      p      d    tot
    1  0.000  0.000  0.000  0.000
    2  0.000  0.000  0.000  0.000
    3  0.000  0.000  0.000  0.000
    4  0.000  0.000  0.000  0.000
    5  0.000  0.000  0.000  0.000
    6  0.000  0.000  0.000  0.000
    7  0.000  0.000  0.000  0.000
    8  0.000  0.000  0.000  0.000
    9  0.000  0.000  0.000  0.000
   10  0.000  0.000  0.000  0.000
   11  0.000  0.000  0.000  0.000
   12  0.000  0.000  0.000  0.000
   13  0.000  0.000  0.000  0.000
   14  0.000  0.000  0.000  0.000
   15  0.000  0.000  0.000  0.000
   16  0.000  0.000  0.000  0.000
   17  0.000  0.000  0.000  0.000
   18  0.000  0.000  0.000  0.000
   19  0.000  0.000  0.000  0.000
   20  0.000  0.000  0.000  0.000
   21  0.000  0.000  0.000  0.000
   22  0.000  0.000  0.000  0.000
   23  0.000  0.000  0.000  0.000
   24  0.000  0.000  0.000  0.000
   25  0.000  0.000  0.000  0.000
   26  0.000  0.000  0.000  0.000
   27  0.000  0.000  0.000  0.000
   28  0.000  0.000  0.000  0.000
   29  0.000  0.000  0.000  0.000
   30  0.000  0.000  0.000  0.000
   31  0.000  0.000  0.000  0.000
   32  0.000  0.000  0.000  0.000
   33  0.000  0.000  0.000  0.000
   34  0.000  0.000  0.000  0.000
   35  0.000  0.000  0.000  0.000
   36  0.992  0.000  0.000  0.992
   37  0.000  0.001  0.000  0.001
tot    0.993  0.001  0.000  0.993
 
band     2 # energy  -26.12756212 # occ.  2.00000000
 
ion      s      p      d    tot
    1  0.000  0.000  0.000  0.000
    2  0.000  0.000  0.000  0.000
    3  0.000  0.000  0.000  0.000
    4  0.000  0.000  0.000  0.000
    5  0.000  0.000  0.000  0.000
    6  0.000  0.000  0.000  0.000
    7  0.000  0.000  0.000  0.000
    8  0.000  0.000  0.000  0.000
    9  0.000  0.000  0.000  0.000
   10  0.000  0.000  0.000  0.000
   11  0.000  0.000  0.000  0.000
   12  0.000  0.000  0.000  0.000
   13  0.000  0.000  0.000  0.000
   14  0.000  0.000  0.000  0.000
   15  0.000  0.000  0.000  0.000
   16  0.000  0.000  0.000  0.000
   17  0.000  0.000  0.000  0.000
   18  0.000  0.000  0.000  0.000
   19  0.000  0.000  0.000  0.000
   20  0.000  0.000  0.000  0.000
   21  0.000  0.000  0.000  0.000
   22  0.000  0.000  0.000  0.000
   23  0.000  0.000  0.000  0.000
   24  0.000  0.000  0.000  0.000
   25  0.000  0.000  0.000  0.000
   26  0.000  0.000  0.000  0.000
   27  0.000  0.000  0.000  0.000
   28  0.000  0.000  0.000  0.000
   29  0.000  0.000  0.000  0.000
   30  0.000  0.000  0.000  0.000
   31  0.000  0.000  0.000  0.000
   32  0.000  0.000  0.000  0.000
   33  0.000  0.000  0.000  0.000
   34  0.000  0.000  0.000  0.000
   35  0.000  0.000  0.000  0.000
   36  0.000  0.970  0.000  0.970
   37  0.000  0.000  0.000  0.000
tot    0.001  0.971  0.001  0.972
 
band     3 # energy  -26.12755429 # occ.  2.00000000
 
ion      s      p      d    tot
    1  0.000  0.000  0.000  0.000
    2  0.000  0.000  0.000  0.000
    3  0.000  0.000  0.000  0.000
    4  0.000  0.000  0.000  0.000
    5  0.000  0.000  0.000  0.000
    6  0.000  0.000  0.000  0.000
    7  0.000  0.000  0.000  0.000
    8  0.000  0.000  0.000  0.000
    9  0.000  0.000  0.000  0.000
   10  0.000  0.000  0.000  0.000
   11  0.000  0.000  0.000  0.000
   12  0.000  0.000  0.000  0.000
   13  0.000  0.000  0.000  0.000
   14  0.000  0.000  0.000  0.000
   15  0.000  0.000  0.000  0.000
   16  0.000  0.000  0.000  0.000
   17  0.000  0.000  0.000  0.000
   18  0.000  0.000  0.000  0.000
   19  0.000  0.000  0.000  0.000
   20  0.000  0.000  0.000  0.000
   21  0.000  0.000  0.000  0.000
   22  0.000  0.000  0.000  0.000
   23  0.000  0.000  0.000  0.000
   24  0.000  0.000  0.000  0.000
   25  0.000  0.000  0.000  0.000
   26  0.000  0.000  0.000  0.000
   27  0.000  0.000  0.000  0.000
   28  0.000  0.000  0.000  0.000
   29  0.000  0.000  0.000  0.000
   30  0.000  0.000  0.000  0.001
   31  0.000  0.000  0.000  0.000
   32  0.000  0.000  0.000  0.000
   33  0.000  0.000  0.000  0.001
   34  0.000  0.000  0.000  0.000
   35  0.000  0.000  0.000  0.000
   36  0.000  0.970  0.000  0.970
   37  0.000  0.000  0.000  0.000
tot    0.001  0.971  0.001  0.972
 
band     4 # energy  -26.01114169 # occ.  2.00000000
 
ion      s      p      d    tot
    1  0.000  0.000  0.000  0.000
    2  0.000  0.000  0.000  0.000
    3  0.000  0.000  0.000  0.000
    4  0.000  0.000  0.000  0.000
    5  0.000  0.000  0.000  0.000
    6  0.000  0.000  0.000  0.000
    7  0.000  0.000  0.000  0.000
    8  0.000  0.000  0.000  0.000
    9  0.000  0.000  0.000  0.000
   10  0.000  0.000  0.000  0.000
   11  0.000  0.000  0.000  0.000
   12  0.000  0.000  0.000  0.000
   13  0.000  0.000  0.000  0.000
   14  0.000  0.000  0.000  0.000
   15  0.000  0.000  0.000  0.000
   16  0.000  0.000  0.000  0.000
   17  0.000  0.000  0.000  0.000
   18  0.000  0.000  0.000  0.000
   19  0.000  0.000  0.000  0.000
   20  0.000  0.000  0.000  0.000
   21  0.000  0.000  0.000  0.000
   22  0.000  0.000  0.000  0.000
   23  0.000  0.000  0.000  0.000
   24  0.000  0.000  0.000  0.000
   25  0.000  0.000  0.000  0.000
   26  0.000  0.000  0.000  0.000
   27  0.000  0.000  0.000  0.000
   28  0.000  0.000  0.000  0.000
   29  0.000  0.000  0.000  0.000
   30  0.000  0.000  0.000  0.000
   31  0.000  0.000  0.000  0.000
   32  0.000  0.000  0.000  0.000
   33  0.000  0.000  0.000  0.000
   34  0.000  0.000  0.000  0.000
   35  0.000  0.000  0.000  0.000
   36  0.000  0.951  0.001  0.952
   37  0.009  0.008  0.000  0.017
tot    0.010  0.959  0.001  0.971
 
band     5 # energy   -7.37323619 # occ.  2.00000000
 
ion      s      p      d    tot
    1  0.000  0.000  0.000  0.000
    2  0.000  0.000  0.000  0.000
    3  0.000  0.000  0.000  0.000
    4  0.000  0.000  0.000  0.000
    5  0.000  0.000  0.000  0.000
    6  0.000  0.000  0.000  0.000
    7  0.000  0.000  0.000  0.000
    8  0.000  0.000  0.000  0.000
    9  0.000  0.000  0.000  0.000
   10  0.001  0.000  0.000  0.001
   11  0.001  0.000  0.000  0.001
   12  0.001  0.000  0.000  0.001
   13  0.001  0.000  0.000  0.001
   14  0.001  0.000  0.000  0.001
   15  0.001  0.000  0.000  0.001
   16  0.001  0.000  0.000  0.001
   17  0.001  0.000  0.000  0.001
   18  0.001  0.000  0.000  0.001
   19  0.002  0.000  0.000  0.002
   20  0.005  0.001  0.003  0.009
   21  0.005  0.001  0.003  0.009
   22  0.002  0.000  0.000  0.002
   23  0.005  0.001  0.003  0.009
   24  0.002  0.000  0.000  0.002
   25  0.002  0.000  0.000  0.002
   26  0.002  0.000  0.000  0.002
   27  0.002  0.000  0.000  0.002
   28  0.001  0.000  0.000  0.001
   29  0.002  0.000  0.001  0.003
   30  0.002  0.000  0.001  0.003
   31  0.002  0.000  0.001  0.003
   32  0.002  0.000  0.001  0.003
   33  0.002  0.000  0.001  0.003
   34  0.002  0.000  0.001  0.003
   35  0.001  0.000  0.000  0.001
   36  0.039  0.020  0.071  0.130
   37  0.414  0.004  0.000  0.418
tot    0.501  0.028  0.085  0.613
 
band     6 # energy   -6.82565910 # occ.  2.00000000
 
ion      s      p      d    tot
    1  0.006  0.001  0.000  0.007
    2  0.007  0.001  0.000  0.007
    3  0.007  0.001  0.000  0.007
    4  0.007  0.001  0.000  0.007
    5  0.007  0.001  0.000  0.007
    6  0.007  0.001  0.000  0.007
    7  0.007  0.001  0.000  0.007
    8  0.007  0.001  0.000  0.007
    9  0.007  0.001  0.000  0.007
   10  0.024  0.000  0.001  0.024
   11  0.024  0.000  0.000  0.025
   12  0.024  0.000  0.001  0.024
   13  0.024  0.000  0.000  0.025
   14  0.024  0.000  0.000  0.025
   15  0.024  0.000  0.000  0.024
   16  0.024  0.000  0.001  0.024
   17  0.024  0.000  0.000  0.024
   18  0.024  0.000  0.000  0.024
   19  0.021  0.000  0.000  0.021
   20  0.018  0.000  0.001  0.019
   21  0.018  0.000  0.001  0.019
   22  0.020  0.000  0.000  0.021
   23  0.018  0.000  0.001  0.019
   24  0.020  0.000  0.000  0.021
   25  0.021  0.000  0.000  0.021
   26  0.021  0.000  0.000  0.021
   27  0.020  0.000  0.000  0.021
   28  0.005  0.001  0.000  0.005
   29  0.003  0.001  0.000  0.004
   30  0.003  0.001  0.000  0.004
   31  0.003  0.001  0.000  0.004
   32  0.003  0.001  0.000  0.004
   33  0.003  0.001  0.000  0.004
   34  0.003  0.001  0.000  0.004
   35  0.004  0.000  0.000  0.005
   36  0.000  0.004  0.006  0.010
   37  0.035  0.000  0.000  0.035
tot    0.516  0.017  0.016  0.549
 
band     7 # energy   -5.99098156 # occ.  2.00000000
 
ion      s      p      d    tot
    1  0.008  0.000  0.000  0.008
    2  0.007  0.000  0.000  0.007
    3  0.007  0.000  0.000  0.007
    4  0.007  0.000  0.000  0.007
    5  0.006  0.000  0.000  0.007
    6  0.007  0.000  0.000  0.007
    7  0.007  0.000  0.000  0.007
    8  0.007  0.000  0.000  0.007
    9  0.006  0.000  0.000  0.007
   10  0.011  0.001  0.015  0.027
   11  0.010  0.001  0.017  0.027
   12  0.011  0.001  0.015  0.027
   13  0.010  0.001  0.017  0.027
   14  0.010  0.001  0.017  0.027
   15  0.009  0.001  0.015  0.024
   16  0.011  0.001  0.015  0.027
   17  0.009  0.001  0.015  0.024
   18  0.009  0.001  0.015  0.024
   19  0.013  0.001  0.017  0.032
   20  0.011  0.001  0.026  0.037
   21  0.011  0.001  0.026  0.037
   22  0.015  0.001  0.016  0.032
   23  0.011  0.001  0.026  0.037
   24  0.015  0.001  0.016  0.032
   25  0.013  0.001  0.017  0.031
   26  0.013  0.001  0.017  0.031
   27  0.015  0.001  0.016  0.032
   28  0.008  0.000  0.000  0.008
   29  0.006  0.000  0.000  0.007
   30  0.006  0.000  0.000  0.007
   31  0.006  0.000  0.000  0.007
   32  0.006  0.000  0.000  0.007
   33  0.006  0.000  0.000  0.007
   34  0.006  0.000  0.000  0.007
   35  0.008  0.001  0.000  0.008
   36  0.000  0.001  0.001  0.003
   37  0.005  0.000  0.000  0.005
tot    0.321  0.023  0.322  0.666
 
band     8 # energy   -5.73530021 # occ.  2.00000000
 
ion      s      p      d    tot
    1  0.015  0.000  0.019  0.034
    2  0.013  0.000  0.019  0.032
    3  0.013  0.000  0.019  0.032
    4  0.013  0.000  0.019  0.032
    5  0.012  0.000  0.018  0.030
    6  0.013  0.000  0.019  0.032
    7  0.013  0.000  0.019  0.032
    8  0.013  0.000  0.019  0.032
    9  0.012  0.000  0.019  0.031
   10  0.000  0.000  0.021  0.022
   11  0.000  0.000  0.016  0.017
   12  0.000  0.000  0.021  0.022
   13  0.000  0.000  0.016  0.017
   14  0.000  0.000  0.016  0.017
   15  0.000  0.000  0.014  0.015
   16  0.000  0.000  0.021  0.022
   17  0.000  0.000  0.014  0.015
   18  0.000  0.000  0.014  0.015
   19  0.000  0.000  0.013  0.013
   20  0.000  0.000  0.017  0.017
   21  0.000  0.000  0.017  0.017
   22  0.000  0.000  0.011  0.011
   23  0.000  0.000  0.017  0.017
   24  0.000  0.000  0.011  0.011
   25  0.000  0.000  0.013  0.013
   26  0.000  0.000  0.013  0.013
   27  0.000  0.000  0.011  0.011
   28  0.011  0.000  0.011  0.022
   29  0.009  0.000  0.013  0.022
   30  0.009  0.000  0.013  0.022
   31  0.009  0.000  0.013  0.022
   32  0.009  0.000  0.013  0.022
   33  0.009  0.000  0.013  0.022
   34  0.009  0.000  0.013  0.022
   35  0.012  0.000  0.013  0.025
   36  0.002  0.000  0.004  0.006
   37  0.001  0.000  0.000  0.001
tot    0.200  0.006  0.551  0.757
 
band     9 # energy   -5.60793817 # occ.  2.00000000
 
ion      s      p      d    tot
    1  0.000  0.000  0.008  0.008
    2  0.001  0.000  0.002  0.003
    3  0.001  0.000  0.002  0.003
    4  0.000  0.000  0.003  0.003
    5  0.000  0.000  0.002  0.002
    6  0.000  0.000  0.003  0.003
    7  0.001  0.000  0.003  0.005
    8  0.001  0.000  0.003  0.004
    9  0.000  0.000  0.004  0.004
   10  0.003  0.001  0.020  0.024
   11  0.000  0.000  0.025  0.025
   12  0.003  0.001  0.020  0.024
   13  0.000  0.001  0.030  0.030
   14  0.000  0.001  0.030  0.030
   15  0.011  0.001  0.008  0.019
   16  0.012  0.001  0.024  0.037
   17  0.003  0.000  0.030  0.033
   18  0.003  0.000  0.030  0.033
   19  0.026  0.001  0.028  0.055
   20  0.004  0.000  0.106  0.110
   21  0.004  0.000  0.105  0.109
   22  0.000  0.001  0.029  0.030
   23  0.015  0.001  0.011  0.027
   24  0.000  0.001  0.028  0.030
   25  0.006  0.001  0.038  0.045
   26  0.007  0.001  0.038  0.045
   27  0.001  0.000  0.036  0.037
   28  0.000  0.000  0.006  0.006
   29  0.000  0.000  0.004  0.005
   30  0.000  0.000  0.004  0.004
   31  0.001  0.001  0.006  0.007
   32  0.001  0.001  0.006  0.007
   33  0.000  0.000  0.002  0.002
   34  0.000  0.000  0.002  0.002
   35  0.000  0.000  0.000  0.000
   36  0.000  0.000  0.001  0.001
   37  0.000  0.000  0.000  0.000
tot    0.104  0.014  0.696  0.814
 
band    10 # energy   -5.60792761 # occ.  2.00000000
 
ion      s      p      d    tot
    1  0.000  0.000  0.008  0.008
    2  0.000  0.000  0.003  0.004
    3  0.000  0.000  0.003  0.004
    4  0.001  0.000  0.003  0.004
    5  0.000  0.000  0.002  0.002
    6  0.001  0.000  0.003  0.004
    7  0.000  0.000  0.002  0.003
    8  0.000  0.000  0.002  0.003
    9  0.000  0.000  0.004  0.004
   10  0.009  0.001  0.022  0.033
   11  0.000  0.001  0.031  0.032
   12  0.009  0.001  0.022  0.032
   13  0.000  0.000  0.027  0.027
   14  0.000  0.000  0.027  0.027
   15  0.000  0.000  0.037  0.037
   16  0.000  0.001  0.019  0.020
   17  0.008  0.001  0.015  0.024
   18  0.008  0.001  0.015  0.023
   19  0.000  0.001  0.041  0.042
   20  0.012  0.000  0.042  0.054
   21  0.012  0.000  0.043  0.055
   22  0.001  0.001  0.033  0.035
   23  0.000  0.000  0.137  0.137
   24  0.001  0.001  0.034  0.035
   25  0.019  0.001  0.031  0.052
   26  0.019  0.001  0.032  0.051
   27  0.000  0.001  0.026  0.027
   28  0.000  0.000  0.006  0.007
   29  0.001  0.000  0.004  0.005
   30  0.001  0.000  0.004  0.005
   31  0.000  0.000  0.002  0.002
   32  0.000  0.000  0.002  0.002
   33  0.001  0.000  0.006  0.007
   34  0.001  0.000  0.006  0.007
   35  0.000  0.000  0.000  0.000
   36  0.000  0.000  0.001  0.001
   37  0.000  0.000  0.000  0.000
tot    0.104  0.014  0.696  0.814
 
band    11 # energy   -5.60417371 # occ.  2.00000000
 
ion      s      p      d    tot
    1  0.000  0.000  0.008  0.009
    2  0.002  0.000  0.007  0.009
    3  0.002  0.000  0.007  0.009
    4  0.002  0.000  0.007  0.009
    5  0.003  0.000  0.006  0.008
    6  0.002  0.000  0.007  0.009
    7  0.002  0.000  0.007  0.009
    8  0.002  0.000  0.007  0.009
    9  0.005  0.000  0.000  0.005
   10  0.002  0.000  0.025  0.027
   11  0.005  0.001  0.021  0.027
   12  0.001  0.000  0.025  0.027
   13  0.005  0.001  0.021  0.027
   14  0.005  0.001  0.021  0.027
   15  0.004  0.000  0.030  0.034
   16  0.001  0.000  0.025  0.027
   17  0.004  0.000  0.030  0.034
   18  0.004  0.000  0.030  0.035
   19  0.001  0.000  0.039  0.040
   20  0.010  0.001  0.070  0.081
   21  0.010  0.001  0.071  0.081
   22  0.007  0.001  0.010  0.017
   23  0.010  0.001  0.071  0.081
   24  0.007  0.001  0.010  0.017
   25  0.001  0.000  0.039  0.040
   26  0.001  0.000  0.039  0.040
   27  0.007  0.001  0.010  0.017
   28  0.002  0.000  0.000  0.002
   29  0.001  0.000  0.006  0.007
   30  0.001  0.000  0.006  0.007
   31  0.001  0.000  0.006  0.007
   32  0.001  0.000  0.006  0.007
   33  0.001  0.000  0.006  0.007
   34  0.001  0.000  0.006  0.007
   35  0.003  0.000  0.000  0.004
   36  0.000  0.001  0.001  0.002
   37  0.001  0.000  0.000  0.001
tot    0.113  0.013  0.681  0.807
 
band    12 # energy   -5.60211608 # occ.  2.00000000
 
ion      s      p      d    tot
    1  0.000  0.000  0.005  0.005
    2  0.000  0.000  0.002  0.003
    3  0.001  0.000  0.006  0.007
    4  0.000  0.000  0.002  0.003
    5  0.000  0.000  0.009  0.010
    6  0.002  0.001  0.006  0.008
    7  0.001  0.000  0.006  0.007
    8  0.001  0.001  0.005  0.007
    9  0.000  0.000  0.001  0.001
   10  0.009  0.001  0.012  0.022
   11  0.009  0.001  0.057  0.068
   12  0.002  0.000  0.082  0.084
   13  0.007  0.001  0.062  0.070
   14  0.032  0.001  0.017  0.050
   15  0.002  0.001  0.017  0.020
   16  0.003  0.000  0.074  0.077
   17  0.001  0.001  0.015  0.017
   18  0.006  0.000  0.038  0.044
   19  0.000  0.000  0.025  0.026
   20  0.013  0.001  0.031  0.045
   21  0.003  0.001  0.027  0.031
   22  0.003  0.000  0.033  0.036
   23  0.004  0.001  0.028  0.033
   24  0.013  0.001  0.007  0.021
   25  0.000  0.000  0.018  0.019
   26  0.000  0.000  0.026  0.027
   27  0.004  0.000  0.030  0.034
   28  0.000  0.000  0.001  0.001
   29  0.001  0.000  0.004  0.005
   30  0.001  0.000  0.003  0.003
   31  0.001  0.000  0.004  0.005
   32  0.000  0.000  0.002  0.002
   33  0.001  0.000  0.003  0.004
   34  0.000  0.000  0.002  0.003
   35  0.000  0.000  0.006  0.006
   36  0.000  0.000  0.001  0.001
   37  0.000  0.000  0.000  0.000
tot    0.120  0.016  0.669  0.804
 
band    13 # energy   -5.60211052 # occ.  2.00000000
 
ion      s      p      d    tot
    1  0.000  0.000  0.005  0.005
    2  0.001  0.001  0.007  0.009
    3  0.001  0.000  0.003  0.004
    4  0.002  0.001  0.007  0.009
    5  0.000  0.000  0.009  0.010
    6  0.000  0.000  0.003  0.004
    7  0.001  0.000  0.003  0.005
    8  0.000  0.000  0.004  0.004
    9  0.000  0.000  0.001  0.001
   10  0.000  0.000  0.100  0.100
   11  0.023  0.001  0.034  0.057
   12  0.007  0.001  0.030  0.038
   13  0.026  0.001  0.029  0.055
   14  0.000  0.001  0.074  0.075
   15  0.004  0.001  0.030  0.034
   16  0.006  0.001  0.038  0.045
   17  0.005  0.000  0.032  0.037
   18  0.000  0.002  0.009  0.010
   19  0.000  0.000  0.021  0.022
   20  0.000  0.001  0.027  0.028
   21  0.010  0.001  0.030  0.041
   22  0.011  0.001  0.014  0.025
   23  0.009  0.001  0.030  0.040
   24  0.000  0.000  0.039  0.040
   25  0.000  0.000  0.028  0.029
   26  0.000  0.000  0.020  0.021
   27  0.009  0.001  0.016  0.027
   28  0.000  0.000  0.001  0.001
   29  0.000  0.000  0.002  0.002
   30  0.001  0.000  0.003  0.004
   31  0.000  0.000  0.002  0.002
   32  0.001  0.000  0.004  0.005
   33  0.001  0.000  0.003  0.004
   34  0.001  0.000  0.004  0.005
   35  0.000  0.000  0.006  0.006
   36  0.000  0.000  0.001  0.001
   37  0.000  0.000  0.000  0.000
tot    0.120  0.016  0.669  0.804
 
band    14 # energy   -5.59928150 # occ.  2.00000000
 
ion      s      p      d    tot
    1  0.001  0.001  0.002  0.004
    2  0.000  0.000  0.006  0.006
    3  0.000  0.000  0.006  0.006
    4  0.000  0.000  0.006  0.006
    5  0.005  0.001  0.003  0.009
    6  0.000  0.000  0.006  0.006
    7  0.000  0.000  0.006  0.006
    8  0.000  0.000  0.006  0.006
    9  0.000  0.000  0.003  0.003
   10  0.012  0.001  0.006  0.020
   11  0.010  0.000  0.054  0.064
   12  0.012  0.001  0.006  0.020
   13  0.010  0.000  0.054  0.064
   14  0.010  0.000  0.054  0.064
   15  0.000  0.001  0.037  0.037
   16  0.012  0.001  0.006  0.020
   17  0.000  0.001  0.037  0.038
   18  0.000  0.001  0.037  0.038
   19  0.014  0.001  0.017  0.032
   20  0.002  0.001  0.024  0.027
   21  0.002  0.001  0.024  0.027
   22  0.002  0.000  0.050  0.052
   23  0.002  0.001  0.024  0.027
   24  0.002  0.000  0.050  0.052
   25  0.014  0.001  0.017  0.032
   26  0.014  0.001  0.017  0.032
   27  0.002  0.000  0.050  0.052
   28  0.002  0.001  0.003  0.006
   29  0.000  0.000  0.005  0.005
   30  0.000  0.000  0.005  0.005
   31  0.000  0.000  0.005  0.005
   32  0.000  0.000  0.005  0.005
   33  0.000  0.000  0.005  0.005
   34  0.000  0.000  0.005  0.005
   35  0.004  0.000  0.002  0.006
   36  0.000  0.000  0.000  0.000
   37  0.001  0.000  0.000  0.001
tot    0.135  0.018  0.643  0.796
 
band    15 # energy   -5.58333548 # occ.  2.00000000
 
ion      s      p      d    tot
    1  0.001  0.000  0.022  0.023
    2  0.002  0.000  0.010  0.011
    3  0.002  0.000  0.010  0.011
    4  0.002  0.000  0.010  0.011
    5  0.000  0.000  0.000  0.001
    6  0.002  0.000  0.010  0.011
    7  0.002  0.000  0.010  0.011
    8  0.002  0.000  0.010  0.011
    9  0.009  0.001  0.000  0.010
   10  0.002  0.000  0.052  0.054
   11  0.002  0.000  0.028  0.031
   12  0.002  0.000  0.052  0.054
   13  0.002  0.000  0.028  0.031
   14  0.002  0.000  0.028  0.031
   15  0.002  0.000  0.006  0.009
   16  0.002  0.000  0.052  0.054
   17  0.002  0.000  0.006  0.009
   18  0.002  0.000  0.006  0.009
   19  0.001  0.000  0.017  0.018
   20  0.001  0.000  0.041  0.042
   21  0.001  0.000  0.041  0.042
   22  0.004  0.000  0.029  0.033
   23  0.001  0.000  0.041  0.042
   24  0.004  0.000  0.029  0.033
   25  0.001  0.000  0.017  0.018
   26  0.001  0.000  0.017  0.018
   27  0.004  0.000  0.029  0.033
   28  0.015  0.000  0.009  0.025
   29  0.003  0.000  0.016  0.019
   30  0.003  0.000  0.016  0.019
   31  0.003  0.000  0.016  0.019
   32  0.003  0.000  0.016  0.019
   33  0.003  0.000  0.016  0.019
   34  0.003  0.000  0.016  0.019
   35  0.001  0.000  0.019  0.020
   36  0.000  0.000  0.000  0.000
   37  0.000  0.000  0.000  0.000
tot    0.091  0.007  0.729  0.826
 
band    16 # energy   -5.57579797 # occ.  2.00000000
 
ion      s      p      d    tot
    1  0.002  0.000  0.001  0.003
    2  0.003  0.000  0.012  0.015
    3  0.003  0.000  0.012  0.015
    4  0.003  0.000  0.012  0.015
    5  0.007  0.000  0.008  0.016
    6  0.003  0.000  0.012  0.015
    7  0.003  0.000  0.012  0.015
    8  0.003  0.000  0.012  0.015
    9  0.001  0.000  0.028  0.030
   10  0.000  0.000  0.046  0.046
   11  0.000  0.001  0.004  0.005
   12  0.000  0.000  0.045  0.046
   13  0.000  0.001  0.004  0.005
   14  0.000  0.001  0.004  0.005
   15  0.009  0.000  0.040  0.050
   16  0.000  0.000  0.045  0.046
   17  0.009  0.000  0.040  0.050
   18  0.009  0.000  0.040  0.050
   19  0.000  0.000  0.012  0.013
   20  0.001  0.000  0.027  0.028
   21  0.001  0.000  0.027  0.028
   22  0.001  0.001  0.017  0.018
   23  0.001  0.000  0.027  0.028
   24  0.001  0.001  0.017  0.018
   25  0.000  0.000  0.012  0.013
   26  0.000  0.000  0.012  0.013
   27  0.001  0.001  0.017  0.018
   28  0.002  0.000  0.004  0.007
   29  0.006  0.000  0.018  0.023
   30  0.006  0.000  0.018  0.023
   31  0.006  0.000  0.018  0.023
   32  0.006  0.000  0.018  0.023
   33  0.006  0.000  0.018  0.023
   34  0.006  0.000  0.018  0.023
   35  0.013  0.000  0.021  0.034
   36  0.001  0.000  0.004  0.005
   37  0.000  0.000  0.000  0.000
tot    0.117  0.008  0.684  0.809
 
band    17 # energy   -5.56467217 # occ.  2.00000000
 
ion      s      p      d    tot
    1  0.000  0.000  0.012  0.013
    2  0.003  0.001  0.007  0.011
    3  0.004  0.001  0.006  0.010
    4  0.000  0.000  0.010  0.011
    5  0.000  0.000  0.010  0.010
    6  0.000  0.000  0.010  0.010
    7  0.003  0.000  0.005  0.009
    8  0.002  0.000  0.007  0.009
    9  0.000  0.001  0.007  0.008
   10  0.012  0.000  0.028  0.039
   11  0.000  0.000  0.022  0.022
   12  0.009  0.000  0.033  0.042
   13  0.000  0.000  0.033  0.033
   14  0.000  0.000  0.037  0.038
   15  0.000  0.000  0.092  0.093
   16  0.000  0.000  0.049  0.049
   17  0.010  0.000  0.038  0.048
   18  0.013  0.000  0.018  0.031
   19  0.000  0.000  0.024  0.024
   20  0.005  0.000  0.018  0.023
   21  0.004  0.000  0.024  0.028
   22  0.004  0.000  0.024  0.028
   23  0.000  0.000  0.041  0.042
   24  0.006  0.000  0.019  0.025
   25  0.000  0.000  0.029  0.029
   26  0.000  0.000  0.027  0.028
   27  0.000  0.000  0.036  0.036
   28  0.000  0.000  0.017  0.017
   29  0.001  0.000  0.008  0.009
   30  0.000  0.000  0.008  0.008
   31  0.003  0.001  0.006  0.010
   32  0.004  0.001  0.005  0.010
   33  0.001  0.000  0.007  0.008
   34  0.002  0.000  0.006  0.009
   35  0.000  0.000  0.007  0.007
   36  0.000  0.000  0.001  0.001
   37  0.000  0.000  0.000  0.000
tot    0.086  0.010  0.732  0.827
 
band    18 # energy   -5.56466838 # occ.  2.00000000
 
ion      s      p      d    tot
    1  0.000  0.000  0.012  0.013
    2  0.001  0.000  0.008  0.009
    3  0.000  0.000  0.009  0.010
    4  0.004  0.001  0.005  0.009
    5  0.000  0.000  0.010  0.010
    6  0.004  0.001  0.005  0.010
    7  0.001  0.001  0.010  0.012
    8  0.002  0.001  0.009  0.012
    9  0.000  0.001  0.007  0.008
   10  0.002  0.000  0.046  0.048
   11  0.000  0.000  0.040  0.040
   12  0.005  0.000  0.040  0.045
   13  0.000  0.000  0.028  0.029
   14  0.000  0.000  0.024  0.025
   15  0.015  0.000  0.006  0.022
   16  0.013  0.000  0.024  0.038
   17  0.006  0.000  0.061  0.066
   18  0.002  0.000  0.081  0.083
   19  0.000  0.000  0.029  0.030
   20  0.001  0.000  0.038  0.039
   21  0.002  0.000  0.031  0.034
   22  0.003  0.000  0.029  0.031
   23  0.006  0.000  0.015  0.021
   24  0.001  0.000  0.034  0.035
   25  0.000  0.000  0.024  0.024
   26  0.000  0.000  0.026  0.026
   27  0.007  0.000  0.016  0.023
   28  0.000  0.000  0.017  0.017
   29  0.003  0.000  0.006  0.009
   30  0.004  0.000  0.005  0.009
   31  0.000  0.000  0.007  0.008
   32  0.000  0.000  0.008  0.008
   33  0.003  0.001  0.006  0.009
   34  0.002  0.000  0.007  0.009
   35  0.000  0.000  0.007  0.007
   36  0.000  0.000  0.001  0.001
   37  0.000  0.000  0.000  0.000
tot    0.086  0.010  0.732  0.827
 
band    19 # energy   -5.55455280 # occ.  2.00000000
 
ion      s      p      d    tot
    1  0.000  0.000  0.005  0.006
    2  0.002  0.000  0.006  0.009
    3  0.000  0.000  0.007  0.008
    4  0.002  0.000  0.007  0.009
    5  0.000  0.000  0.006  0.007
    6  0.001  0.000  0.006  0.007
    7  0.000  0.000  0.008  0.008
    8  0.002  0.000  0.005  0.008
    9  0.000  0.000  0.018  0.018
   10  0.001  0.000  0.031  0.031
   11  0.002  0.000  0.034  0.036
   12  0.000  0.000  0.014  0.014
   13  0.000  0.000  0.053  0.053
   14  0.004  0.000  0.010  0.014
   15  0.001  0.000  0.035  0.036
   16  0.000  0.000  0.021  0.022
   17  0.000  0.000  0.038  0.038
   18  0.001  0.000  0.033  0.035
   19  0.003  0.000  0.053  0.057
   20  0.000  0.000  0.050  0.050
   21  0.000  0.000  0.013  0.013
   22  0.001  0.000  0.067  0.068
   23  0.000  0.000  0.029  0.029
   24  0.011  0.000  0.028  0.039
   25  0.007  0.000  0.012  0.019
   26  0.001  0.000  0.084  0.085
   27  0.005  0.000  0.050  0.056
   28  0.000  0.000  0.005  0.005
   29  0.000  0.000  0.010  0.010
   30  0.002  0.000  0.004  0.007
   31  0.001  0.000  0.008  0.009
   32  0.001  0.001  0.007  0.009
   33  0.002  0.000  0.005  0.007
   34  0.000  0.000  0.009  0.010
   35  0.000  0.000  0.015  0.015
   36  0.000  0.000  0.001  0.001
   37  0.000  0.000  0.000  0.000
tot    0.052  0.007  0.786  0.845
 
band    20 # energy   -5.55453880 # occ.  2.00000000
 
ion      s      p      d    tot
    1  0.000  0.000  0.005  0.006
    2  0.000  0.000  0.007  0.008
    3  0.003  0.000  0.006  0.008
    4  0.001  0.000  0.006  0.007
    5  0.000  0.000  0.006  0.007
    6  0.001  0.000  0.008  0.009
    7  0.002  0.000  0.005  0.008
    8  0.000  0.000  0.008  0.009
    9  0.000  0.000  0.018  0.018
   10  0.000  0.000  0.013  0.013
   11  0.002  0.000  0.030  0.033
   12  0.001  0.000  0.030  0.031
   13  0.004  0.000  0.012  0.016
   14  0.000  0.000  0.055  0.055
   15  0.001  0.000  0.035  0.036
   16  0.000  0.000  0.023  0.023
   17  0.001  0.000  0.033  0.035
   18  0.000  0.000  0.038  0.038
   19  0.004  0.000  0.046  0.051
   20  0.000  0.000  0.011  0.012
   21  0.000  0.000  0.048  0.049
   22  0.011  0.000  0.029  0.040
   23  0.000  0.000  0.032  0.033
   24  0.001  0.000  0.069  0.069
   25  0.000  0.000  0.088  0.088
   26  0.007  0.000  0.015  0.022
   27  0.006  0.000  0.046  0.053
   28  0.000  0.000  0.005  0.005
   29  0.002  0.001  0.004  0.007
   30  0.000  0.000  0.010  0.010
   31  0.001  0.001  0.007  0.008
   32  0.001  0.000  0.007  0.008
   33  0.000  0.000  0.010  0.010
   34  0.002  0.000  0.005  0.007
   35  0.000  0.000  0.015  0.015
   36  0.000  0.000  0.001  0.001
   37  0.000  0.000  0.000  0.000
tot    0.052  0.007  0.786  0.845
 
band    21 # energy   -5.53273227 # occ.  2.00000000
 
ion      s      p      d    tot
    1  0.010  0.001  0.000  0.011
    2  0.000  0.000  0.012  0.012
    3  0.000  0.000  0.012  0.012
    4  0.000  0.000  0.012  0.012
    5  0.000  0.000  0.014  0.014
    6  0.000  0.000  0.012  0.012
    7  0.000  0.000  0.012  0.012
    8  0.000  0.000  0.012  0.012
    9  0.002  0.000  0.000  0.003
   10  0.003  0.000  0.014  0.016
   11  0.001  0.000  0.042  0.044
   12  0.003  0.000  0.014  0.016
   13  0.001  0.000  0.042  0.044
   14  0.001  0.000  0.042  0.044
   15  0.004  0.000  0.023  0.027
   16  0.003  0.000  0.014  0.016
   17  0.004  0.000  0.023  0.027
   18  0.004  0.000  0.023  0.027
   19  0.002  0.000  0.060  0.063
   20  0.005  0.000  0.004  0.010
   21  0.005  0.000  0.004  0.010
   22  0.002  0.000  0.033  0.035
   23  0.005  0.000  0.004  0.010
   24  0.002  0.000  0.033  0.035
   25  0.002  0.000  0.060  0.063
   26  0.002  0.000  0.060  0.063
   27  0.002  0.000  0.033  0.035
   28  0.002  0.000  0.033  0.035
   29  0.003  0.000  0.014  0.016
   30  0.003  0.000  0.014  0.016
   31  0.003  0.000  0.014  0.016
   32  0.003  0.000  0.014  0.016
   33  0.003  0.000  0.014  0.016
   34  0.003  0.000  0.014  0.016
   35  0.000  0.000  0.000  0.000
   36  0.003  0.001  0.002  0.006