PROCAR new format
# of k-points:   10         # of bands:  252         # of ions:   37

 k-point     1 :    0.00000000 0.00000000 0.00000000     weight = 0.01562500

band     1 # energy  -10.91584924 # occ.  2.00000000
 
ion      s      p      d    tot
    1  0.000  0.000  0.000  0.000
    2  0.000  0.000  0.000  0.000
    3  0.000  0.000  0.000  0.000
    4  0.000  0.000  0.000  0.000
    5  0.000  0.000  0.000  0.000
    6  0.000  0.000  0.000  0.000
    7  0.000  0.000  0.000  0.000
    8  0.000  0.000  0.000  0.000
    9  0.000  0.000  0.000  0.000
   10  0.000  0.000  0.000  0.000
   11  0.000  0.000  0.000  0.000
   12  0.000  0.000  0.000  0.000
   13  0.000  0.000  0.000  0.000
   14  0.000  0.000  0.000  0.000
   15  0.000  0.000  0.000  0.000
   16  0.000  0.000  0.000  0.000
   17  0.000  0.000  0.000  0.000
   18  0.000  0.000  0.000  0.000
   19  0.000  0.000  0.000  0.000
   20  0.001  0.000  0.000  0.002
   21  0.001  0.000  0.000  0.002
   22  0.000  0.000  0.000  0.000
   23  0.001  0.000  0.000  0.002
   24  0.000  0.000  0.000  0.000
   25  0.000  0.000  0.000  0.000
   26  0.000  0.000  0.000  0.000
   27  0.000  0.000  0.000  0.000
   28  0.000  0.000  0.000  0.000
   29  0.001  0.000  0.000  0.001
   30  0.001  0.000  0.000  0.001
   31  0.001  0.000  0.000  0.001
   32  0.001  0.000  0.000  0.001
   33  0.001  0.000  0.000  0.001
   34  0.001  0.000  0.000  0.001
   35  0.000  0.000  0.000  0.000
   36  0.090  0.064  0.246  0.400
   37  0.402  0.033  0.000  0.436
tot    0.502  0.099  0.248  0.850
 
band     2 # energy   -9.19688454 # occ.  2.00000000
 
ion      s      p      d    tot
    1  0.007  0.001  0.000  0.007
    2  0.007  0.001  0.000  0.007
    3  0.007  0.001  0.000  0.007
    4  0.007  0.001  0.000  0.007
    5  0.007  0.001  0.000  0.007
    6  0.007  0.001  0.000  0.007
    7  0.007  0.001  0.000  0.007
    8  0.007  0.001  0.000  0.007
    9  0.007  0.001  0.000  0.007
   10  0.025  0.000  0.000  0.025
   11  0.024  0.000  0.000  0.025
   12  0.025  0.000  0.000  0.025
   13  0.024  0.000  0.000  0.025
   14  0.024  0.000  0.000  0.025
   15  0.025  0.000  0.000  0.025
   16  0.025  0.000  0.000  0.025
   17  0.025  0.000  0.000  0.025
   18  0.025  0.000  0.000  0.025
   19  0.025  0.000  0.000  0.025
   20  0.023  0.000  0.000  0.024
   21  0.023  0.000  0.000  0.024
   22  0.025  0.000  0.000  0.025
   23  0.023  0.000  0.000  0.024
   24  0.025  0.000  0.000  0.025
   25  0.025  0.000  0.000  0.025
   26  0.025  0.000  0.000  0.025
   27  0.025  0.000  0.000  0.025
   28  0.007  0.001  0.000  0.008
   29  0.006  0.001  0.000  0.007
   30  0.006  0.001  0.000  0.007
   31  0.006  0.001  0.000  0.007
   32  0.006  0.001  0.000  0.007
   33  0.006  0.001  0.000  0.007
   34  0.006  0.001  0.000  0.007
   35  0.007  0.001  0.000  0.008
   36  0.003  0.005  0.005  0.013
   37  0.005  0.000  0.000  0.006
tot    0.562  0.021  0.006  0.589
 
band     3 # energy   -7.90195535 # occ.  2.00000000
 
ion      s      p      d    tot
    1  0.018  0.001  0.000  0.019
    2  0.018  0.001  0.000  0.019
    3  0.018  0.001  0.000  0.019
    4  0.018  0.001  0.000  0.019
    5  0.018  0.001  0.000  0.019
    6  0.018  0.001  0.000  0.019
    7  0.018  0.001  0.000  0.019
    8  0.018  0.001  0.000  0.019
    9  0.017  0.001  0.000  0.019
   10  0.010  0.002  0.001  0.013
   11  0.010  0.002  0.001  0.013
   12  0.010  0.002  0.001  0.013
   13  0.010  0.002  0.001  0.013
   14  0.010  0.002  0.001  0.013
   15  0.010  0.002  0.001  0.012
   16  0.010  0.002  0.001  0.013
   17  0.010  0.002  0.001  0.012
   18  0.010  0.002  0.001  0.012
   19  0.010  0.002  0.000  0.013
   20  0.008  0.002  0.001  0.011
   21  0.008  0.002  0.001  0.011
   22  0.010  0.002  0.000  0.013
   23  0.008  0.002  0.001  0.011
   24  0.010  0.002  0.000  0.013
   25  0.011  0.002  0.000  0.013
   26  0.010  0.002  0.000  0.013
   27  0.010  0.002  0.000  0.013
   28  0.020  0.001  0.001  0.021
   29  0.019  0.001  0.001  0.020
   30  0.019  0.001  0.001  0.020
   31  0.019  0.001  0.001  0.020
   32  0.019  0.001  0.001  0.020
   33  0.019  0.001  0.001  0.020
   34  0.019  0.001  0.001  0.020
   35  0.020  0.001  0.001  0.021
   36  0.015  0.003  0.017  0.035
   37  0.002  0.000  0.000  0.003
tot    0.503  0.057  0.036  0.596
 
band     4 # energy   -6.42787488 # occ.  2.00000000
 
ion      s      p      d    tot
    1  0.013  0.000  0.004  0.017
    2  0.013  0.000  0.004  0.017
    3  0.013  0.000  0.004  0.017
    4  0.013  0.000  0.004  0.017
    5  0.008  0.000  0.004  0.013
    6  0.013  0.000  0.004  0.017
    7  0.013  0.000  0.004  0.017
    8  0.013  0.000  0.004  0.017
    9  0.018  0.000  0.003  0.021
   10  0.002  0.003  0.001  0.006
   11  0.005  0.004  0.001  0.010
   12  0.002  0.003  0.001  0.006
   13  0.005  0.004  0.001  0.010
   14  0.005  0.004  0.001  0.010
   15  0.000  0.003  0.002  0.004
   16  0.002  0.003  0.001  0.006
   17  0.000  0.003  0.002  0.004
   18  0.000  0.003  0.002  0.004
   19  0.003  0.002  0.005  0.010
   20  0.017  0.003  0.005  0.026
   21  0.017  0.003  0.005  0.026
   22  0.002  0.003  0.004  0.008
   23  0.017  0.003  0.005  0.026
   24  0.002  0.003  0.004  0.008
   25  0.003  0.002  0.005  0.010
   26  0.003  0.002  0.005  0.010
   27  0.002  0.003  0.004  0.008
   28  0.014  0.000  0.005  0.019
   29  0.016  0.000  0.008  0.024
   30  0.016  0.000  0.008  0.024
   31  0.016  0.000  0.008  0.024
   32  0.016  0.000  0.008  0.024
   33  0.016  0.000  0.008  0.024
   34  0.016  0.000  0.008  0.024
   35  0.018  0.000  0.005  0.023
   36  0.014  0.003  0.109  0.125
   37  0.005  0.005  0.000  0.010
tot    0.350  0.063  0.252  0.664
 
band     5 # energy   -6.33148041 # occ.  2.00000000
 
ion      s      p      d    tot
    1  0.000  0.001  0.003  0.004
    2  0.006  0.001  0.001  0.008
    3  0.000  0.000  0.001  0.002
    4  0.005  0.001  0.001  0.007
    5  0.000  0.002  0.002  0.004
    6  0.002  0.001  0.001  0.004
    7  0.001  0.001  0.001  0.003
    8  0.004  0.001  0.001  0.007
    9  0.000  0.000  0.001  0.001
   10  0.036  0.004  0.003  0.042
   11  0.011  0.005  0.005  0.021
   12  0.004  0.001  0.009  0.014
   13  0.003  0.008  0.005  0.016
   14  0.027  0.001  0.005  0.032
   15  0.000  0.004  0.004  0.008
   16  0.015  0.002  0.007  0.024
   17  0.000  0.005  0.004  0.009
   18  0.001  0.001  0.003  0.005
   19  0.005  0.007  0.003  0.015
   20  0.068  0.002  0.009  0.079
   21  0.008  0.004  0.014  0.027
   22  0.002  0.003  0.010  0.015
   23  0.029  0.004  0.012  0.044
   24  0.015  0.004  0.002  0.021
   25  0.013  0.000  0.006  0.019
   26  0.002  0.011  0.001  0.014
   27  0.006  0.003  0.008  0.017
   28  0.000  0.002  0.003  0.005
   29  0.011  0.004  0.005  0.020
   30  0.001  0.001  0.003  0.005
   31  0.010  0.003  0.005  0.018
   32  0.002  0.002  0.004  0.008
   33  0.004  0.001  0.003  0.008
   34  0.005  0.003  0.005  0.013
   35  0.000  0.000  0.003  0.003
   36  0.000  0.004  0.135  0.140
   37  0.000  0.005  0.000  0.005
tot    0.296  0.103  0.288  0.687
 
band     6 # energy   -6.33147439 # occ.  2.00000000
 
ion      s      p      d    tot
    1  0.000  0.001  0.003  0.004
    2  0.000  0.001  0.001  0.002
    3  0.006  0.001  0.001  0.009
    4  0.001  0.001  0.001  0.003
    5  0.000  0.002  0.002  0.004
    6  0.004  0.001  0.001  0.006
    7  0.005  0.001  0.001  0.008
    8  0.002  0.001  0.001  0.004
    9  0.000  0.000  0.001  0.001
   10  0.001  0.000  0.010  0.011
   11  0.016  0.004  0.005  0.025
   12  0.032  0.004  0.003  0.039
   13  0.024  0.002  0.005  0.030
   14  0.001  0.008  0.005  0.014
   15  0.000  0.003  0.003  0.007
   16  0.022  0.002  0.006  0.030
   17  0.001  0.002  0.003  0.005
   18  0.000  0.005  0.004  0.010
   19  0.008  0.005  0.004  0.017
   20  0.002  0.004  0.015  0.021
   21  0.062  0.002  0.009  0.073
   22  0.014  0.004  0.003  0.021
   23  0.042  0.003  0.011  0.056
   24  0.000  0.003  0.011  0.014
   25  0.000  0.012  0.001  0.013
   26  0.012  0.002  0.005  0.018
   27  0.009  0.003  0.006  0.018
   28  0.000  0.002  0.003  0.005
   29  0.000  0.001  0.003  0.004
   30  0.010  0.004  0.006  0.019
   31  0.001  0.001  0.004  0.006
   32  0.009  0.003  0.004  0.016
   33  0.007  0.003  0.006  0.016
   34  0.006  0.002  0.003  0.011
   35  0.000  0.000  0.003  0.003
   36  0.000  0.004  0.135  0.140
   37  0.000  0.005  0.000  0.005
tot    0.296  0.103  0.288  0.687
 
band     7 # energy   -6.25163228 # occ.  2.00000000
 
ion      s      p      d    tot
    1  0.000  0.001  0.002  0.003
    2  0.008  0.002  0.002  0.011
    3  0.000  0.001  0.002  0.003
    4  0.004  0.001  0.002  0.007
    5  0.000  0.000  0.003  0.003
    6  0.001  0.001  0.002  0.004
    7  0.003  0.001  0.002  0.005
    8  0.007  0.002  0.002  0.011
    9  0.000  0.003  0.004  0.007
   10  0.002  0.009  0.003  0.014
   11  0.006  0.002  0.008  0.016
   12  0.009  0.000  0.005  0.014
   13  0.018  0.004  0.002  0.023
   14  0.003  0.002  0.009  0.014
   15  0.017  0.004  0.008  0.029
   16  0.003  0.008  0.003  0.014
   17  0.052  0.003  0.004  0.059
   18  0.009  0.004  0.009  0.023
   19  0.017  0.002  0.012  0.031
   20  0.000  0.009  0.004  0.013
   21  0.000  0.002  0.004  0.006
   22  0.048  0.001  0.006  0.056
   23  0.000  0.008  0.004  0.012
   24  0.009  0.009  0.005  0.023
   25  0.009  0.001  0.015  0.025
   26  0.050  0.005  0.002  0.058
   27  0.016  0.008  0.005  0.029
   28  0.000  0.002  0.006  0.008
   29  0.016  0.003  0.004  0.022
   30  0.000  0.001  0.004  0.005
   31  0.011  0.003  0.004  0.017
   32  0.001  0.001  0.004  0.006
   33  0.008  0.003  0.004  0.014
   34  0.014  0.002  0.004  0.020
   35  0.000  0.004  0.005  0.010
   36  0.000  0.000  0.033  0.034
   37  0.000  0.000  0.000  0.000
tot    0.340  0.113  0.196  0.649
 
band     8 # energy   -6.25163110 # occ.  2.00000000
 
ion      s      p      d    tot
    1  0.000  0.001  0.002  0.003
    2  0.000  0.001  0.002  0.002
    3  0.007  0.002  0.002  0.011
    4  0.004  0.001  0.002  0.007
    5  0.000  0.000  0.003  0.003
    6  0.007  0.002  0.002  0.010
    7  0.005  0.002  0.002  0.008
    8  0.001  0.001  0.002  0.003
    9  0.000  0.003  0.004  0.007
   10  0.007  0.002  0.005  0.014
   11  0.012  0.003  0.005  0.020
   12  0.000  0.011  0.002  0.013
   13  0.000  0.002  0.011  0.012
   14  0.014  0.003  0.004  0.021
   15  0.035  0.004  0.006  0.045
   16  0.006  0.004  0.004  0.014
   17  0.000  0.004  0.011  0.015
   18  0.043  0.003  0.005  0.051
   19  0.034  0.003  0.007  0.045
   20  0.000  0.003  0.004  0.008
   21  0.000  0.011  0.003  0.014
   22  0.000  0.011  0.005  0.016
   23  0.000  0.005  0.004  0.009
   24  0.040  0.003  0.006  0.049
   25  0.041  0.004  0.005  0.050
   26  0.000  0.000  0.017  0.018
   27  0.033  0.004  0.006  0.043
   28  0.000  0.002  0.006  0.008
   29  0.001  0.002  0.004  0.006
   30  0.016  0.003  0.004  0.023
   31  0.006  0.001  0.004  0.011
   32  0.015  0.003  0.004  0.022
   33  0.009  0.002  0.004  0.014
   34  0.002  0.002  0.004  0.008
   35  0.000  0.004  0.005  0.010
   36  0.000  0.000  0.033  0.034
   37  0.000  0.000  0.000  0.000
tot    0.340  0.113  0.196  0.649
 
band     9 # energy   -6.21421327 # occ.  2.00000000
 
ion      s      p      d    tot
    1  0.019  0.003  0.001  0.023
    2  0.000  0.002  0.004  0.005
    3  0.000  0.002  0.004  0.005
    4  0.000  0.002  0.004  0.005
    5  0.001  0.000  0.000  0.001
    6  0.000  0.002  0.004  0.005
    7  0.000  0.002  0.004  0.005
    8  0.000  0.002  0.004  0.005
    9  0.009  0.002  0.000  0.011
   10  0.028  0.005  0.006  0.039
   11  0.004  0.000  0.011  0.015
   12  0.028  0.005  0.006  0.040
   13  0.004  0.000  0.011  0.015
   14  0.004  0.000  0.011  0.015
   15  0.013  0.008  0.003  0.025
   16  0.028  0.005  0.006  0.040
   17  0.013  0.008  0.003  0.025
   18  0.013  0.008  0.003  0.024
   19  0.022  0.010  0.002  0.034
   20  0.000  0.002  0.010  0.012
   21  0.000  0.002  0.010  0.013
   22  0.027  0.003  0.009  0.039
   23  0.000  0.002  0.010  0.013
   24  0.027  0.003  0.009  0.039
   25  0.022  0.009  0.002  0.034
   26  0.022  0.010  0.002  0.034
   27  0.027  0.003  0.009  0.039
   28  0.020  0.003  0.000  0.024
   29  0.000  0.002  0.004  0.006
   30  0.000  0.002  0.004  0.006
   31  0.000  0.002  0.004  0.006
   32  0.000  0.002  0.004  0.006
   33  0.000  0.002  0.004  0.006
   34  0.000  0.002  0.004  0.006
   35  0.014  0.003  0.001  0.018
   36  0.000  0.000  0.000  0.000
   37  0.000  0.000  0.000  0.000
tot    0.348  0.117  0.177  0.641
 
band    10 # energy   -6.15228301 # occ.  2.00000000
 
ion      s      p      d    tot
    1  0.000  0.000  0.000  0.001
    2  0.001  0.002  0.005  0.008
    3  0.001  0.002  0.005  0.008
    4  0.001  0.002  0.005  0.008
    5  0.031  0.003  0.000  0.034
    6  0.001  0.002  0.005  0.008
    7  0.001  0.002  0.005  0.008
    8  0.001  0.002  0.005  0.008
    9  0.005  0.002  0.003  0.009
   10  0.003  0.004  0.008  0.015
   11  0.023  0.009  0.003  0.035
   12  0.003  0.004  0.008  0.015
   13  0.023  0.009  0.003  0.035
   14  0.023  0.009  0.003  0.035
   15  0.023  0.001  0.011  0.035
   16  0.003  0.004  0.008  0.015
   17  0.023  0.001  0.011  0.035
   18  0.023  0.001  0.011  0.035
   19  0.010  0.001  0.011  0.022
   20  0.023  0.006  0.005  0.034
   21  0.024  0.006  0.005  0.034
   22  0.007  0.007  0.005  0.019
   23  0.024  0.006  0.005  0.034
   24  0.007  0.007  0.005  0.019
   25  0.010  0.001  0.011  0.022
   26  0.010  0.001  0.011  0.022
   27  0.007  0.007  0.005  0.019
   28  0.000  0.001  0.002  0.003
   29  0.001  0.001  0.004  0.007
   30  0.001  0.001  0.004  0.007
   31  0.001  0.001  0.004  0.007
   32  0.001  0.001  0.004  0.007
   33  0.001  0.001  0.004  0.007
   34  0.001  0.001  0.004  0.007
   35  0.001  0.001  0.001  0.003
   36  0.022  0.008  0.004  0.034
   37  0.002  0.000  0.000  0.002
tot    0.347  0.117  0.191  0.654
 
band    11 # energy   -5.70123565 # occ.  2.00000000
 
ion      s      p      d    tot
    1  0.000  0.001  0.006  0.007
    2  0.006  0.002  0.003  0.012
    3  0.014  0.003  0.003  0.020
    4  0.006  0.002  0.003  0.011
    5  0.000  0.004  0.007  0.011
    6  0.001  0.001  0.003  0.006
    7  0.013  0.003  0.003  0.020
    8  0.002  0.001  0.003  0.006
    9  0.000  0.002  0.006  0.007
   10  0.000  0.001  0.016  0.017
   11  0.026  0.002  0.005  0.033
   12  0.010  0.002  0.006  0.017
   13  0.026  0.002  0.005  0.033
   14  0.000  0.002  0.012  0.014
   15  0.004  0.002  0.005  0.011
   16  0.010  0.002  0.006  0.017
   17  0.004  0.002  0.005  0.011
   18  0.000  0.007  0.003  0.010
   19  0.000  0.000  0.004  0.004
   20  0.000  0.000  0.034  0.034
   21  0.000  0.004  0.011  0.015
   22  0.000  0.002  0.007  0.009
   23  0.000  0.004  0.010  0.015
   24  0.000  0.000  0.002  0.002
   25  0.000  0.000  0.005  0.005
   26  0.000  0.000  0.004  0.004
   27  0.000  0.002  0.007  0.010
   28  0.000  0.000  0.001  0.001
   29  0.004  0.001  0.004  0.009
   30  0.001  0.002  0.008  0.011
   31  0.004  0.001  0.004  0.009
   32  0.001  0.000  0.003  0.004
   33  0.001  0.002  0.008  0.011
   34  0.001  0.000  0.003  0.004
   35  0.000  0.000  0.000  0.001
   36  0.000  0.000  0.342  0.342
   37  0.000  0.024  0.000  0.024
tot    0.133  0.084  0.559  0.776
 
band    12 # energy   -5.70116462 # occ.  2.00000000
 
ion      s      p      d    tot
    1  0.000  0.001  0.006  0.007
    2  0.008  0.002  0.003  0.013
    3  0.000  0.001  0.003  0.005
    4  0.008  0.002  0.003  0.013
    5  0.000  0.004  0.007  0.011
    6  0.013  0.003  0.003  0.019
    7  0.001  0.001  0.003  0.005
    8  0.013  0.003  0.003  0.019
    9  0.000  0.002  0.006  0.007
   10  0.013  0.002  0.003  0.017
   11  0.008  0.002  0.010  0.020
   12  0.003  0.001  0.013  0.017
   13  0.009  0.002  0.009  0.020
   14  0.034  0.002  0.003  0.040
   15  0.001  0.005  0.004  0.010
   16  0.003  0.001  0.013  0.017
   17  0.001  0.005  0.004  0.010
   18  0.005  0.000  0.006  0.011
   19  0.000  0.000  0.004  0.005
   20  0.000  0.005  0.003  0.008
   21  0.000  0.002  0.026  0.027
   22  0.000  0.001  0.004  0.005
   23  0.000  0.001  0.026  0.028
   24  0.000  0.003  0.009  0.012
   25  0.001  0.000  0.004  0.004
   26  0.000  0.000  0.004  0.005
   27  0.000  0.001  0.004  0.004
   28  0.000  0.000  0.001  0.001
   29  0.000  0.001  0.006  0.007
   30  0.003  0.000  0.002  0.005
   31  0.000  0.001  0.006  0.007
   32  0.003  0.002  0.007  0.012
   33  0.003  0.000  0.002  0.005
   34  0.003  0.002  0.007  0.012
   35  0.000  0.000  0.000  0.001
   36  0.000  0.000  0.342  0.342
   37  0.000  0.024  0.000  0.024
tot    0.133  0.084  0.559  0.776
 
band    13 # energy   -5.60688270 # occ.  2.00000000
 
ion      s      p      d    tot
    1  0.009  0.000  0.011  0.020
    2  0.008  0.001  0.011  0.020
    3  0.008  0.001  0.011  0.020
    4  0.008  0.001  0.011  0.020
    5  0.004  0.001  0.011  0.016
    6  0.008  0.001  0.011  0.020
    7  0.008  0.001  0.011  0.020
    8  0.008  0.001  0.011  0.020
    9  0.014  0.000  0.009  0.024
   10  0.009  0.000  0.021  0.030
   11  0.012  0.000  0.019  0.030
   12  0.009  0.000  0.021  0.030
   13  0.012  0.000  0.019  0.030
   14  0.012  0.000  0.019  0.030
   15  0.005  0.000  0.020  0.025
   16  0.009  0.000  0.021  0.030
   17  0.005  0.000  0.020  0.025
   18  0.005  0.000  0.020  0.025
   19  0.003  0.001  0.010  0.013
   20  0.004  0.001  0.019  0.025
   21  0.004  0.001  0.019  0.025
   22  0.003  0.001  0.008  0.012
   23  0.004  0.001  0.019  0.025
   24  0.003  0.001  0.008  0.012
   25  0.003  0.001  0.010  0.013
   26  0.003  0.001  0.010  0.013
   27  0.003  0.001  0.008  0.012
   28  0.000  0.000  0.001  0.002
   29  0.001  0.001  0.005  0.006
   30  0.001  0.001  0.005  0.006
   31  0.001  0.001  0.005  0.006
   32  0.001  0.001  0.005  0.006
   33  0.001  0.001  0.005  0.006
   34  0.001  0.001  0.005  0.006
   35  0.000  0.000  0.001  0.002
   36  0.004  0.004  0.113  0.121
   37  0.012  0.011  0.000  0.023
tot    0.202  0.036  0.528  0.766
 
band    14 # energy   -5.59902781 # occ.  2.00000000
 
ion      s      p      d    tot
    1  0.000  0.005  0.008  0.012
    2  0.009  0.003  0.004  0.016
    3  0.016  0.003  0.004  0.023
    4  0.009  0.002  0.004  0.016
    5  0.000  0.000  0.007  0.008
    6  0.001  0.001  0.004  0.006
    7  0.016  0.003  0.004  0.023
    8  0.001  0.001  0.004  0.006
    9  0.000  0.003  0.008  0.010
   10  0.024  0.002  0.006  0.032
   11  0.000  0.004  0.009  0.013
   12  0.006  0.004  0.010  0.019
   13  0.000  0.004  0.009  0.013
   14  0.000  0.000  0.005  0.006
   15  0.006  0.001  0.014  0.021
   16  0.006  0.004  0.010  0.019
   17  0.006  0.001  0.014  0.021
   18  0.025  0.004  0.003  0.031
   19  0.001  0.001  0.010  0.012
   20  0.001  0.003  0.010  0.015
   21  0.000  0.002  0.006  0.008
   22  0.001  0.001  0.018  0.019
   23  0.000  0.002  0.006  0.008
   24  0.003  0.001  0.001  0.005
   25  0.003  0.006  0.005  0.014
   26  0.001  0.002  0.010  0.012
   27  0.001  0.001  0.018  0.019
   28  0.000  0.003  0.003  0.006
   29  0.008  0.002  0.010  0.021
   30  0.023  0.001  0.010  0.035
   31  0.008  0.002  0.010  0.021
   32  0.004  0.002  0.010  0.015
   33  0.023  0.001  0.010  0.034
   34  0.004  0.002  0.010  0.016
   35  0.000  0.003  0.006  0.009
   36  0.000  0.000  0.176  0.176
   37  0.000  0.002  0.000  0.002
tot    0.205  0.080  0.455  0.741
 
band    15 # energy   -5.59892751 # occ.  2.00000000
 
ion      s      p      d    tot
    1  0.000  0.005  0.008  0.012
    2  0.008  0.002  0.004  0.014
    3  0.001  0.002  0.004  0.007
    4  0.008  0.002  0.004  0.014
    5  0.000  0.000  0.007  0.008
    6  0.016  0.003  0.004  0.024
    7  0.002  0.002  0.004  0.007
    8  0.016  0.003  0.004  0.024
    9  0.000  0.003  0.008  0.010
   10  0.000  0.004  0.011  0.015
   11  0.000  0.001  0.007  0.008
   12  0.018  0.002  0.007  0.027
   13  0.000  0.001  0.007  0.008
   14  0.000  0.005  0.010  0.015
   15  0.019  0.003  0.006  0.028
   16  0.018  0.002  0.007  0.028
   17  0.019  0.003  0.006  0.028
   18  0.000  0.000  0.018  0.018
   19  0.002  0.004  0.007  0.013
   20  0.000  0.001  0.005  0.006
   21  0.001  0.003  0.009  0.012
   22  0.002  0.001  0.006  0.010
   23  0.001  0.003  0.009  0.012
   24  0.000  0.000  0.023  0.024
   25  0.000  0.000  0.012  0.012
   26  0.002  0.004  0.007  0.013
   27  0.002  0.001  0.006  0.009
   28  0.000  0.003  0.003  0.006
   29  0.015  0.001  0.010  0.026
   30  0.000  0.002  0.010  0.013
   31  0.016  0.001  0.010  0.027
   32  0.019  0.002  0.011  0.032
   33  0.000  0.002  0.010  0.013
   34  0.019  0.002  0.011  0.031
   35  0.000  0.003  0.006  0.009
   36  0.000  0.000  0.176  0.176
   37  0.000  0.002  0.000  0.002
tot    0.205  0.080  0.456  0.741
 
band    16 # energy   -5.43746313 # occ.  2.00000000
 
ion      s      p      d    tot
    1  0.032  0.003  0.000  0.036
    2  0.000  0.003  0.010  0.013
    3  0.000  0.003  0.010  0.013
    4  0.000  0.003  0.010  0.013
    5  0.000  0.000  0.000  0.000
    6  0.000  0.003  0.010  0.013
    7  0.000  0.003  0.010  0.013
    8  0.000  0.003  0.010  0.013
    9  0.032  0.004  0.001  0.036
   10  0.010  0.003  0.010  0.023
   11  0.001  0.000  0.015  0.016
   12  0.010  0.003  0.010  0.023
   13  0.001  0.000  0.015  0.016
   14  0.001  0.000  0.015  0.016
   15  0.008  0.004  0.016  0.027
   16  0.010  0.003  0.010  0.023
   17  0.008  0.004  0.016  0.027
   18  0.008  0.004  0.016  0.027
   19  0.004  0.003  0.020  0.028
   20  0.000  0.000  0.014  0.014
   21  0.000  0.000  0.014  0.014
   22  0.010  0.004  0.010  0.024
   23  0.000  0.000  0.014  0.014
   24  0.010  0.004  0.010  0.024
   25  0.004  0.003  0.020  0.028
   26  0.004  0.003  0.020  0.028
   27  0.010  0.004  0.010  0.024
   28  0.035  0.003  0.000  0.039
   29  0.000  0.003  0.010  0.014
   30  0.000  0.003  0.010  0.014
   31  0.000  0.003  0.010  0.014
   32  0.000  0.003  0.010  0.014
   33  0.000  0.003  0.010  0.014
   34  0.000  0.003  0.010  0.014
   35  0.030  0.004  0.001  0.035
   36  0.000  0.000  0.000  0.000
   37  0.000  0.000  0.000  0.000
tot    0.229  0.095  0.381  0.705
 
band    17 # energy   -5.34899048 # occ.  2.00000000
 
ion      s      p      d    tot
    1  0.014  0.001  0.000  0.015
    2  0.000  0.003  0.011  0.014
    3  0.000  0.003  0.011  0.014
    4  0.000  0.003  0.011  0.014
    5  0.043  0.004  0.000  0.048
    6  0.000  0.003  0.011  0.014
    7  0.000  0.003  0.011  0.014
    8  0.000  0.003  0.011  0.014
    9  0.006  0.001  0.000  0.008
   10  0.001  0.001  0.022  0.024
   11  0.007  0.004  0.016  0.028
   12  0.001  0.001  0.022  0.024
   13  0.007  0.004  0.016  0.028
   14  0.008  0.004  0.016  0.028
   15  0.004  0.001  0.010  0.015
   16  0.001  0.001  0.022  0.024
   17  0.004  0.001  0.010  0.015
   18  0.004  0.001  0.010  0.015
   19  0.007  0.001  0.015  0.023
   20  0.011  0.004  0.009  0.024
   21  0.011  0.004  0.009  0.024
   22  0.001  0.001  0.020  0.023
   23  0.011  0.004  0.009  0.024
   24  0.001  0.001  0.020  0.023
   25  0.007  0.001  0.015  0.023
   26  0.007  0.001  0.015  0.023
   27  0.001  0.001  0.020  0.023
   28  0.007  0.001  0.002  0.010
   29  0.000  0.003  0.012  0.015
   30  0.000  0.003  0.012  0.015
   31  0.000  0.003  0.012  0.015
   32  0.000  0.003  0.012  0.015
   33  0.000  0.003  0.012  0.015
   34  0.000  0.003  0.012  0.015
   35  0.009  0.001  0.000  0.010
   36  0.042  0.012  0.005  0.059
   37  0.003  0.000  0.000  0.003
tot    0.221  0.096  0.418  0.735
 
band    18 # energy   -5.25255749 # occ.  2.00000000
 
ion      s      p      d    tot
    1  0.000  0.001  0.005  0.006
    2  0.003  0.001  0.003  0.006
    3  0.010  0.002  0.003  0.014
    4  0.002  0.001  0.003  0.006
    5  0.000  0.003  0.004  0.006
    6  0.002  0.001  0.003  0.006
    7  0.010  0.002  0.003  0.014
    8  0.003  0.001  0.003  0.006
    9  0.000  0.001  0.008  0.009
   10  0.000  0.001  0.004  0.004
   11  0.004  0.002  0.007  0.013
   12  0.002  0.002  0.005  0.009
   13  0.003  0.002  0.007  0.013
   14  0.000  0.000  0.018  0.018
   15  0.001  0.000  0.007  0.008
   16  0.002  0.002  0.005  0.009
   17  0.001  0.000  0.008  0.009
   18  0.000  0.001  0.018  0.019
   19  0.002  0.001  0.010  0.014
   20  0.000  0.000  0.005  0.005
   21  0.010  0.002  0.016  0.028
   22  0.009  0.002  0.008  0.019
   23  0.010  0.002  0.016  0.029
   24  0.000  0.001  0.020  0.021
   25  0.000  0.006  0.018  0.024
   26  0.002  0.002  0.011  0.015
   27  0.010  0.002  0.007  0.019
   28  0.000  0.002  0.016  0.019
   29  0.005  0.002  0.005  0.012
   30  0.023  0.002  0.008  0.033
   31  0.005  0.002  0.005  0.011
   32  0.006  0.002  0.006  0.014
   33  0.023  0.002  0.008  0.033
   34  0.007  0.002  0.006  0.015
   35  0.000  0.002  0.014  0.016
   36  0.000  0.014  0.198  0.212
   37  0.000  0.032  0.000  0.032
tot    0.155  0.100  0.491  0.746
 
band    19 # energy   -5.25252647 # occ.  2.00000000
 
ion      s      p      d    tot
    1  0.000  0.001  0.005  0.006
    2  0.007  0.001  0.003  0.012
    3  0.000  0.001  0.003  0.003
    4  0.008  0.001  0.003  0.012
    5  0.000  0.003  0.004  0.006
    6  0.008  0.001  0.003  0.012
    7  0.000  0.001  0.003  0.003
    8  0.007  0.001  0.003  0.011
    9  0.000  0.001  0.008  0.009
   10  0.002  0.002  0.006  0.010
   11  0.001  0.001  0.015  0.017
   12  0.001  0.001  0.004  0.006
   13  0.001  0.001  0.014  0.016
   14  0.005  0.003  0.004  0.011
   15  0.000  0.001  0.015  0.015
   16  0.001  0.001  0.004  0.006
   17  0.000  0.001  0.014  0.015
   18  0.001  0.000  0.004  0.005
   19  0.001  0.005  0.016  0.021
   20  0.013  0.003  0.020  0.036
   21  0.004  0.001  0.009  0.013
   22  0.003  0.001  0.016  0.020
   23  0.003  0.001  0.008  0.012
   24  0.013  0.002  0.004  0.018
   25  0.003  0.000  0.008  0.011
   26  0.001  0.004  0.015  0.021
   27  0.003  0.001  0.016  0.021
   28  0.000  0.002  0.016  0.019
   29  0.018  0.002  0.008  0.028
   30  0.000  0.002  0.004  0.006
   31  0.019  0.002  0.008  0.029
   32  0.017  0.002  0.007  0.025
   33  0.000  0.002  0.004  0.006
   34  0.016  0.002  0.006  0.024
   35  0.000  0.002  0.014  0.016
   36  0.000  0.014  0.198  0.212
   37  0.000  0.032  0.000  0.032
tot    0.155  0.100  0.491  0.746
 
band    20 # energy   -5.05423974 # occ.  2.00000000
 
ion      s      p      d    tot
    1  0.000  0.001  0.016  0.017
    2  0.015  0.002  0.005  0.022
    3  0.003  0.001  0.005  0.009
    4  0.015  0.002  0.005  0.022
    5  0.000  0.000  0.011  0.012
    6  0.005  0.001  0.005  0.011
    7  0.003  0.001  0.005  0.009
    8  0.004  0.001  0.005  0.011
    9  0.000  0.003  0.003  0.007
   10  0.000  0.000  0.050  0.050
   11  0.000  0.002  0.012  0.015
   12  0.000  0.001  0.015  0.016
   13  0.000  0.002  0.012  0.014
   14  0.000  0.000  0.004  0.004
   15  0.001  0.005  0.013  0.019
   16  0.000  0.001  0.015  0.015
   17  0.001  0.005  0.013  0.019
   18  0.000  0.000  0.022  0.022
   19  0.014  0.001  0.008  0.024
   20  0.000  0.001  0.038  0.038
   21  0.000  0.001  0.019  0.020
   22  0.005  0.001  0.013  0.020
   23  0.000  0.001  0.019  0.019
   24  0.000  0.002  0.001  0.003
   25  0.000  0.000  0.028  0.028
   26  0.014  0.001  0.009  0.024
   27  0.006  0.001  0.014  0.020
   28  0.000  0.000  0.005  0.005
   29  0.001  0.002  0.018  0.021
   30  0.000  0.000  0.012  0.012
   31  0.001  0.002  0.018  0.021
   32  0.001  0.001  0.018  0.021
   33  0.000  0.000  0.012  0.012
   34  0.001  0.001  0.018  0.020
   35  0.000  0.000  0.003  0.003
   36  0.000  0.000  0.220  0.220
   37  0.000  0.000  0.000  0.000
tot    0.093  0.043  0.688  0.825
 
band    21 # energy   -5.05419966 # occ.  2.00000000
 
ion      s      p      d    tot
    1  0.000  0.001  0.016  0.017
    2  0.000  0.001  0.005  0.006
    3  0.012  0.002  0.005  0.019
    4  0.000  0.001  0.005  0.006
    5  0.000  0.000  0.011  0.012
    6  0.010  0.002  0.005  0.017
    7  0.012  0.002  0.005  0.019
    8  0.011  0.002  0.005  0.017
    9  0.000  0.003  0.003  0.007
   10  0.000  0.001  0.003  0.004
   11  0.000  0.001  0.006  0.007
   12  0.000  0.000  0.038  0.038
   13  0.000  0.001  0.006  0.007
   14  0.000  0.003  0.015  0.018
   15  0.000  0.002  0.019  0.021
   16  0.000  0.000  0.038  0.039
   17  0.000  0.002  0.019  0.021
   18  0.001  0.006  0.010  0.018
   19  0.005  0.000  0.021  0.026
   20  0.000  0.000  0.012  0.013
   21  0.000  0.001  0.031  0.032
   22  0.002  0.002  0.005  0.009
   23  0.000  0.001  0.032  0.032
   24  0.007  0.000  0.018  0.025
   25  0.019  0.001  0.002  0.022
   26  0.005  0.000  0.021  0.026
   27  0.002  0.002  0.005  0.008
   28  0.000  0.000  0.005  0.005
   29  0.001  0.001  0.014  0.015
   30  0.002  0.002  0.020  0.024
   31  0.001  0.001  0.013  0.015
   32  0.000  0.001  0.014  0.015
   33  0.002  0.002  0.020  0.024
   34  0.000  0.001  0.014  0.015
   35  0.000  0.000  0.003  0.003
   36  0.000  0.000  0.220  0.220