 vasp.6.2.0 18Jan21 (build Jun 12 2021 23:27:24) complex                        
  
 executed on             LinuxIFC date 2022.05.30  16:47:34
 running on   28 total cores
 distrk:  each k-point on   28 cores,    1 groups
 distr:  one band on NCORE=   1 cores,   28 groups


--------------------------------------------------------------------------------------------------------


 INCAR:
   ISMEAR = -5
   SIGMA = 0.1
   ISPIN = 1
   EDIFF = 1.d-5
   EDIFFG = -0.01
   NSW = 0
   NELM = 150
   ENCUT = 500
   ISIF = 2
   IBRION = 2
   LREAL = Auto
   ALGO = Fast
   ICHARG = 11
   LORBIT = 10
   LCHARG = .F.
   LWAVE = .F.

 POTCAR:    PAW_PBE Ag 02Apr2005                  
 POTCAR:    PAW_PBE Ti 08Apr2002                  
 POTCAR:    PAW_PBE C 08Apr2002                   
 -----------------------------------------------------------------------------
|                                                                             |
|           W    W    AA    RRRRR   N    N  II  N    N   GGGG   !!!           |
|           W    W   A  A   R    R  NN   N  II  NN   N  G    G  !!!           |
|           W    W  A    A  R    R  N N  N  II  N N  N  G       !!!           |
|           W WW W  AAAAAA  RRRRR   N  N N  II  N  N N  G  GGG   !            |
|           WW  WW  A    A  R   R   N   NN  II  N   NN  G    G                |
|           W    W  A    A  R    R  N    N  II  N    N   GGGG   !!!           |
|                                                                             |
|     For optimal performance we recommend to set                             |
|       NCORE = 2 up to number-of-cores-per-socket                            |
|     NCORE specifies how many cores store one orbital (NPAR=cpu/NCORE).      |
|     This setting can greatly improve the performance of VASP for DFT.       |
|     The default, NCORE=1 might be grossly inefficient on modern             |
|     multi-core architectures or massively parallel machines. Do your        |
|     own testing! More info at https://www.vasp.at/wiki/index.php/NCORE      |
|     Unfortunately you need to use the default for GW and RPA                |
|     calculations (for HF NCORE is supported but not extensively tested      |
|     yet).                                                                   |
|                                                                             |
 -----------------------------------------------------------------------------

 POTCAR:    PAW_PBE Ag 02Apr2005                  
   VRHFIN =Ag : s1 d10                                                                              
   LEXCH  = PE                                                                                      
   EATOM  =  1037.2675 eV,   76.2370 Ry                                                             
                                                                                                    
   TITEL  = PAW_PBE Ag 02Apr2005                                                                    
   LULTRA =        F    use ultrasoft PP ?                                                          
   IUNSCR =        1    unscreen: 0-lin 1-nonlin 2-no                                               
   RPACOR =    2.000    partial core radius                                                         
   POMASS =  107.868; ZVAL   =   11.000    mass and valenz                                          
   RCORE  =    2.500    outmost cutoff radius                                                       
   RWIGS  =    2.840; RWIGS  =    1.503    wigner-seitz radius (au A)                               
   ENMAX  =  249.844; ENMIN  =  187.383 eV                                                          
   ICORE  =        3    local potential                                                             
   LCOR   =        T    correct aug charges                                                         
   LPAW   =        T    paw PP                                                                      
   EAUG   =  412.496                                                                                
   DEXC   =    0.000                                                                                
   RMAX   =    2.560    core radius for proj-oper                                                   
   RAUG   =    1.300    factor for augmentation sphere                                              
   RDEP   =    2.576    radius for radial grids                                                     
   RDEPT  =    2.072    core radius for aug-charge                                                  
                                                                                                    
   Atomic configuration                                                                             
   12 entries                                                                                       
     n  l   j            E        occ.                                                              
     1  0  0.50    -25324.9161   2.0000                                                             
     2  0  0.50     -3728.5341   2.0000                                                             
     2  1  1.50     -3344.0404   6.0000                                                             
     3  0  0.50      -683.5581   2.0000                                                             
     3  1  1.50      -557.3225   6.0000                                                             
     3  2  2.50      -358.3853  10.0000                                                             
     4  0  0.50       -95.0341   2.0000                                                             
     4  1  1.50       -58.5511   6.0000                                                             
     4  2  2.50        -7.4440  10.0000                                                             
     5  0  0.50        -4.4045   1.0000                                                             
     5  1  0.50        -1.3606   0.0000                                                             
     4  3  2.50        -1.3606   0.0000                                                             
   Description                                                                                      
     l       E           TYP  RCUT    TYP  RCUT                                                     
     2     -7.4439781     23  2.400                                                                 
     2     -8.8045607     23  2.400                                                                 
     0     -4.4044681     23  2.400                                                                 
     0      1.9520038     23  2.400                                                                 
     1     -1.3605826     23  2.500                                                                 
     1     27.2116520     23  2.500                                                                 
     3     -4.0817478     23  2.400                                                                 
  local pseudopotential read in
  partial core-charges read in
  partial kinetic energy density read in
  atomic valenz-charges read in
  non local Contribution for L=           2  read in
    real space projection operators read in
  non local Contribution for L=           2  read in
    real space projection operators read in
  non local Contribution for L=           0  read in
    real space projection operators read in
  non local Contribution for L=           0  read in
    real space projection operators read in
  non local Contribution for L=           1  read in
    real space projection operators read in
  non local Contribution for L=           1  read in
    real space projection operators read in
    PAW grid and wavefunctions read in
 
   number of l-projection  operators is LMAX  =           6
   number of lm-projection operators is LMMAX =          18
 
 POTCAR:    PAW_PBE Ti 08Apr2002                  
   VRHFIN =Ti: d3 s1                                                                                
   LEXCH  = PE                                                                                      
   EATOM  =    94.7928 eV,    6.9671 Ry                                                             
                                                                                                    
   TITEL  = PAW_PBE Ti 08Apr2002                                                                    
   LULTRA =        F    use ultrasoft PP ?                                                          
   IUNSCR =        1    unscreen: 0-lin 1-nonlin 2-no                                               
   RPACOR =    2.200    partial core radius                                                         
   POMASS =   47.880; ZVAL   =    4.000    mass and valenz                                          
   RCORE  =    2.800    outmost cutoff radius                                                       
   RWIGS  =    2.500; RWIGS  =    1.323    wigner-seitz radius (au A)                               
   ENMAX  =  178.330; ENMIN  =  133.747 eV                                                          
   RCLOC  =    2.215    cutoff for local pot                                                        
   LCOR   =        T    correct aug charges                                                         
   LPAW   =        T    paw PP                                                                      
   EAUG   =  328.883                                                                                
   DEXC   =    0.000                                                                                
   RMAX   =    2.868    core radius for proj-oper                                                   
   RAUG   =    1.300    factor for augmentation sphere                                              
   RDEP   =    2.885    radius for radial grids                                                     
   RDEPT  =    2.320    core radius for aug-charge                                                  
                                                                                                    
   Atomic configuration                                                                             
    9 entries                                                                                       
     n  l   j            E        occ.                                                              
     1  0  0.50     -4865.3608   2.0000                                                             
     2  0  0.50      -533.1367   2.0000                                                             
     2  1  1.50      -440.5031   6.0000                                                             
     3  0  0.50       -59.3186   2.0000                                                             
     3  1  1.50       -35.7012   6.0000                                                             
     3  2  2.50        -1.9157   3.0000                                                             
     4  0  0.50        -3.7291   1.0000                                                             
     4  1  1.50        -4.0817   0.0000                                                             
     4  3  2.50        -1.3606   0.0000                                                             
   Description                                                                                      
     l       E           TYP  RCUT    TYP  RCUT                                                     
     2     -1.9156924     23  2.800                                                                 
     2     -0.4062961     23  2.800                                                                 
     0     -3.7290832     23  2.800                                                                 
     0     20.4087390     23  2.800                                                                 
     1     -5.4423304     23  2.800                                                                 
  local pseudopotential read in
  partial core-charges read in
  partial kinetic energy density read in
  atomic valenz-charges read in
  non local Contribution for L=           2  read in
    real space projection operators read in
  non local Contribution for L=           2  read in
    real space projection operators read in
  non local Contribution for L=           0  read in
    real space projection operators read in
  non local Contribution for L=           0  read in
    real space projection operators read in
  non local Contribution for L=           1  read in
    real space projection operators read in
    PAW grid and wavefunctions read in
 
   number of l-projection  operators is LMAX  =           5
   number of lm-projection operators is LMMAX =          15
 
 POTCAR:    PAW_PBE C 08Apr2002                   
   VRHFIN =C: s2p2                                                                                  
   LEXCH  = PE                                                                                      
   EATOM  =   147.1560 eV,   10.8157 Ry                                                             
                                                                                                    
   TITEL  = PAW_PBE C 08Apr2002                                                                     
   LULTRA =        F    use ultrasoft PP ?                                                          
   IUNSCR =        1    unscreen: 0-lin 1-nonlin 2-no                                               
   RPACOR =    1.200    partial core radius                                                         
   POMASS =   12.011; ZVAL   =    4.000    mass and valenz                                          
   RCORE  =    1.500    outmost cutoff radius                                                       
   RWIGS  =    1.630; RWIGS  =    0.863    wigner-seitz radius (au A)                               
   ENMAX  =  400.000; ENMIN  =  300.000 eV                                                          
   ICORE  =        2    local potential                                                             
   LCOR   =        T    correct aug charges                                                         
   LPAW   =        T    paw PP                                                                      
   EAUG   =  644.873                                                                                
   DEXC   =    0.000                                                                                
   RMAX   =    1.529    core radius for proj-oper                                                   
   RAUG   =    1.300    factor for augmentation sphere                                              
   RDEP   =    1.501    radius for radial grids                                                     
   RDEPT  =    1.300    core radius for aug-charge                                                  
                                                                                                    
   Atomic configuration                                                                             
    4 entries                                                                                       
     n  l   j            E        occ.                                                              
     1  0  0.50      -273.3789   2.0000                                                             
     2  0  0.50       -13.7508   2.0000                                                             
     2  1  0.50        -5.2854   2.0000                                                             
     3  2  1.50        -5.4423   0.0000                                                             
   Description                                                                                      
     l       E           TYP  RCUT    TYP  RCUT                                                     
     0    -13.7508458     23  1.200                                                                 
     0     -8.2022199     23  1.200                                                                 
     1     -5.2854383     23  1.500                                                                 
     1     34.0145650     23  1.500                                                                 
     2     -5.4423304      7  1.500                                                                 
  local pseudopotential read in
  partial core-charges read in
  partial kinetic energy density read in
  atomic valenz-charges read in
  non local Contribution for L=           0  read in
    real space projection operators read in
  non local Contribution for L=           0  read in
    real space projection operators read in
  non local Contribution for L=           1  read in
    real space projection operators read in
  non local Contribution for L=           1  read in
    real space projection operators read in
    PAW grid and wavefunctions read in
 
   number of l-projection  operators is LMAX  =           4
   number of lm-projection operators is LMMAX =           8
 
 Optimization of the real space projectors (new method)

 maximal supplied QI-value         = 15.12
 optimisation between [QCUT,QGAM] = [ 11.34, 22.83] = [ 36.00,145.93] Ry 
 Optimized for a Real-space Cutoff    1.43 Angstroem

   l    n(q)    QCUT    max X(q) W(low)/X(q) W(high)/X(q)  e(spline) 
   2      9    11.338    53.897    0.16E-03    0.20E-03    0.28E-06
   2      9    11.338    52.416    0.16E-03    0.20E-03    0.29E-06
   0     10    11.338   122.045    0.31E-04    0.76E-04    0.15E-06
   0     10    11.338    73.629    0.30E-04    0.72E-04    0.15E-06
   1      9    11.338    15.255    0.20E-03    0.19E-04    0.17E-06
   1      9    11.338     9.562    0.16E-03    0.15E-04    0.14E-06
 Optimization of the real space projectors (new method)

 maximal supplied QI-value         = 13.42
 optimisation between [QCUT,QGAM] = [ 11.40, 22.81] = [ 36.42,145.68] Ry 
 Optimized for a Real-space Cutoff    1.56 Angstroem

   l    n(q)    QCUT    max X(q) W(low)/X(q) W(high)/X(q)  e(spline) 
   2     10    11.404    49.363    0.27E-03    0.67E-03    0.76E-06
   2     10    11.404    47.669    0.26E-03    0.65E-03    0.73E-06
   0     11    11.404    26.374    0.17E-03    0.20E-03    0.34E-06
   0     11    11.404    11.549    0.14E-03    0.16E-03    0.29E-06
   1     10    11.404     9.492    0.33E-04    0.56E-04    0.16E-06
 Optimization of the real space projectors (new method)

 maximal supplied QI-value         = 25.13
 optimisation between [QCUT,QGAM] = [ 11.31, 22.87] = [ 35.82,146.48] Ry 
 Optimized for a Real-space Cutoff    1.00 Angstroem

   l    n(q)    QCUT    max X(q) W(low)/X(q) W(high)/X(q)  e(spline) 
   0      7    11.310   115.676    0.43E-03    0.13E-02    0.19E-06
   0      7    11.310    87.132    0.43E-03    0.13E-02    0.18E-06
   1      6    11.310     4.429    0.42E-03    0.74E-03    0.11E-06
   1      6    11.310     2.733    0.34E-03    0.55E-03    0.92E-07
  PAW_PBE Ag 02Apr2005                  :
 energy of atom  1       EATOM=-1037.2675
 kinetic energy error for atom=    0.0052 (will be added to EATOM!!)
  PAW_PBE Ti 08Apr2002                  :
 energy of atom  2       EATOM=  -94.7928
 kinetic energy error for atom=    0.0002 (will be added to EATOM!!)
  PAW_PBE C 08Apr2002                   :
 energy of atom  3       EATOM= -147.1560
 kinetic energy error for atom=    0.0076 (will be added to EATOM!!)
 
 
 POSCAR: Ag-Ti-C
  positions in direct lattice
  velocities in cartesian coordinates
 exchange correlation table for  LEXCH =        8
   RHO(1)=    0.500       N(1)  =     2000
   RHO(2)=  100.500       N(2)  =     4000

 VTST: version 3.2, (02/03/18)

 CHAIN: initializing optimizer
 
 OPT: Using VASP Conjugate-Gradient optimizer
 CHAIN: Read ICHAIN            0
 
 POSCAR: Ag-Ti-C
  positions in direct lattice
  velocities in cartesian coordinates
 


--------------------------------------------------------------------------------------------------------


 ion  position               nearest neighbor table
   1  0.000  0.000  0.217-   2 2.93   8 2.93   7 2.93   6 2.93   4 2.93  12 2.93  16 2.93  10 2.93
                             3 2.93
   2  0.333  0.000  0.217-   1 2.93   8 2.93   9 2.93   3 2.93   4 2.93   5 2.93  10 2.93  17 2.93
                            11 2.93
   3  0.667  0.000  0.217-   9 2.93   2 2.93   5 2.93  11 2.93   7 2.93  18 2.93   1 2.93   6 2.93
                            12 2.93
   4  0.000  0.333  0.217-   5 2.93   6 2.93   2 2.93   1 2.93   7 2.93  13 2.93  15 2.93   9 2.93
                            10 2.93
   5  0.333  0.333  0.217-   4 2.93   3 2.93   7 2.93   2 2.93   8 2.93  14 2.93  13 2.93  11 2.93
                             6 2.93
   6  0.667  0.333  0.217-   4 2.93   9 2.93   1 2.93  15 2.93   8 2.93  12 2.93   3 2.93   5 2.93
                            14 2.93
   7  0.000  0.667  0.217-   8 2.93   1 2.93   5 2.93   3 2.93   4 2.93  16 2.93  18 2.93  13 2.93
                             9 2.93
   8  0.333  0.667  0.217-   7 2.93   1 2.93   2 2.93   9 2.93   5 2.93  16 2.93   6 2.93  17 2.93
                            14 2.93
   9  0.667  0.667  0.217-   3 2.93   2 2.93   8 2.93   6 2.93  17 2.93   4 2.93  15 2.93   7 2.93
                            18 2.93
  10  0.111  0.111  0.315-  20 2.91  19 2.92  26 2.92  12 2.93  16 2.93  15 2.93  17 2.93  13 2.93
                            11 2.93   2 2.93   1 2.93   4 2.93
  11  0.444  0.111  0.315-  21 2.91  20 2.91  27 2.92  14 2.93  17 2.93  18 2.93   3 2.93  12 2.93
                            13 2.93  10 2.93   5 2.93   2 2.93
  12  0.778  0.111  0.315-  21 2.91  25 2.92  19 2.92  10 2.93  16 2.93  18 2.93  15 2.93  11 2.93
                             1 2.93  14 2.93   6 2.93   3 2.93
  13  0.111  0.444  0.315-  20 2.91  23 2.91  22 2.92  15 2.93  14 2.93  18 2.93  10 2.93  11 2.93
                            16 2.93   4 2.93   5 2.93   7 2.93
  14  0.444  0.444  0.315-  23 2.91  21 2.91  24 2.92  13 2.93  11 2.93  16 2.93   5 2.93  12 2.93
                            17 2.93   8 2.93  15 2.93   6 2.93
  15  0.778  0.444  0.315-  19 2.92  24 2.92  22 2.92  13 2.93  10 2.93  12 2.93  17 2.93  18 2.93
                             4 2.93   6 2.93   9 2.93  14 2.93
  16  0.111  0.778  0.315-  23 2.91  26 2.92  25 2.92  18 2.93  12 2.93  10 2.93  14 2.93  17 2.93
                            13 2.93   7 2.93   8 2.93   1 2.93
  17  0.444  0.778  0.315-  26 2.92  27 2.92  24 2.92  11 2.93  10 2.93   9 2.93  18 2.93  15 2.93
                            16 2.93   2 2.93  14 2.93   8 2.93
  18  0.778  0.778  0.315-  25 2.92  22 2.92  27 2.92  16 2.93  12 2.93  13 2.93  11 2.93  17 2.93
                            15 2.93   7 2.93   3 2.93   9 2.93
  19  0.889  0.222  0.413-  10 2.92  12 2.92  15 2.92  28 2.92  26 2.93  25 2.93  24 2.93  22 2.93
                            20 2.94  21 2.94  32 2.96  31 2.96
  20  0.223  0.223  0.412-  36 2.82  13 2.91  11 2.91  10 2.91  21 2.92  23 2.92  27 2.93  22 2.93
                            19 2.94  26 2.94  31 2.94  29 2.94
  21  0.555  0.223  0.412-  36 2.82  11 2.91  14 2.91  12 2.91  20 2.92  23 2.92  27 2.93  24 2.93
                            25 2.94  19 2.94  30 2.94  32 2.94
  22  0.889  0.556  0.413-  18 2.92  15 2.92  13 2.92  24 2.93  27 2.93  25 2.93  19 2.93  35 2.93
                            23 2.93  20 2.93  33 2.94  31 2.94
  23  0.223  0.555  0.412-  36 2.82  14 2.91  13 2.91  16 2.91  21 2.92  20 2.92  22 2.93  24 2.93
                            26 2.94  25 2.94  34 2.94  33 2.94
  24  0.556  0.556  0.413-  15 2.92  17 2.92  14 2.92  27 2.93  22 2.93  19 2.93  26 2.93  35 2.93
                            23 2.93  21 2.93  32 2.94  34 2.94
  25  0.889  0.889  0.413-  16 2.92  12 2.92  18 2.92  28 2.92  26 2.93  19 2.93  22 2.93  27 2.93
                            23 2.94  21 2.94  33 2.96  30 2.96
  26  0.222  0.889  0.413-  16 2.92  10 2.92  17 2.92  28 2.92  25 2.93  19 2.93  27 2.93  24 2.93
                            23 2.94  20 2.94  34 2.96  29 2.96
  27  0.556  0.889  0.413-  17 2.92  18 2.92  11 2.92  24 2.93  22 2.93  26 2.93  25 2.93  35 2.93
                            20 2.93  21 2.93  29 2.94  30 2.94
  28  0.000  0.000  0.510-  26 2.92  25 2.92  19 2.92  29 2.95  34 2.95  33 2.95  32 2.95  31 2.95
                            30 2.95
  29  0.334  0.004  0.511-  30 2.89  31 2.90  36 2.90  20 2.94  27 2.94  35 2.95  28 2.95  26 2.96
                            34 3.00
  30  0.662  0.004  0.511-  29 2.89  32 2.90  36 2.90  21 2.94  27 2.94  35 2.95  28 2.95  25 2.96
                            33 3.00
  31  0.004  0.334  0.511-  33 2.89  29 2.90  36 2.90  20 2.94  22 2.94  35 2.95  28 2.95  19 2.96
                            32 3.00
  32  0.662  0.334  0.511-  34 2.89  30 2.90  36 2.90  21 2.94  24 2.94  35 2.95  28 2.95  19 2.96
                            31 3.00
  33  0.004  0.662  0.511-  31 2.89  34 2.90  36 2.90  23 2.94  22 2.94  35 2.95  28 2.95  25 2.96
                            30 3.00
  34  0.334  0.662  0.511-  32 2.89  33 2.90  36 2.90  23 2.94  24 2.94  35 2.95  28 2.95  26 2.96
                            29 3.00
  35  0.667  0.667  0.511-  24 2.93  27 2.93  22 2.93  30 2.95  32 2.95  29 2.95  34 2.95  31 2.95
                            33 2.95
  36  0.333  0.333  0.505-  37 1.79  21 2.82  20 2.82  23 2.82  31 2.90  33 2.90  30 2.90  29 2.90
                            34 2.90  32 2.90
  37  0.333  0.333  0.578-  36 1.79
 
  LATTYP: Found a hexagonal cell.
 ALAT       =     8.7913665772
 C/A-ratio  =     2.7711238095
  
  Lattice vectors:
  
 A1 = (  -4.3956832886,  -7.6135467898,   0.0000000000)
 A2 = (   8.7913665771,   0.0000000000,   0.0000000000)
 A3 = (   0.0000000000,   0.0000000000,  24.3619652401)


Analysis of symmetry for initial positions (statically):
=====================================================================
 Subroutine PRICEL returns:
 Original cell was already a primitive cell.
 

 Routine SETGRP: Setting up the symmetry group for a 
 hexagonal supercell.


 Subroutine GETGRP returns: Found  6 space group operations
 (whereof  6 operations were pure point group operations)
 out of a pool of 24 trial point group operations.


The static configuration has the point symmetry C_3v.


Analysis of symmetry for dynamics (positions and initial velocities):
=====================================================================
 Subroutine PRICEL returns:
 Original cell was already a primitive cell.
 

 Routine SETGRP: Setting up the symmetry group for a 
 hexagonal supercell.


 Subroutine GETGRP returns: Found  6 space group operations
 (whereof  6 operations were pure point group operations)
 out of a pool of 24 trial point group operations.


The dynamic configuration has the point symmetry C_3v.


Analysis of constrained symmetry for selective dynamics:
=====================================================================
 Subroutine PRICEL returns:
 Original cell was already a primitive cell.
 

 Routine SETGRP: Setting up the symmetry group for a 
 hexagonal supercell.


 Subroutine GETGRP returns: Found  6 space group operations
 (whereof  6 operations were pure point group operations)
 out of a pool of 24 trial point group operations.


The constrained configuration has the point symmetry C_3v.


 Subroutine INISYM returns: Found  6 space group operations
 (whereof  6 operations are pure point group operations),
 and found     1 'primitive' translations


----------------------------------------------------------------------------------------

                                     Primitive cell                                     

  volume of cell :    1630.6311

  direct lattice vectors                    reciprocal lattice vectors
     8.791366577  0.000000000  0.000000000     0.113747958 -0.065672414  0.000000000
     4.395683289  7.613546790  0.000000000     0.000000000  0.131344829  0.000000000
     0.000000000  0.000000000 24.361965240     0.000000000  0.000000000  0.041047592

  length of vectors
     8.791366577  8.791366577 24.361965240     0.131344829  0.131344829  0.041047592

  position of ions in fractional coordinates (direct lattice)
     0.000000000  0.000000000  0.216821102
     0.333333313  0.000000000  0.216821102
     0.666666627  0.000000000  0.216821102
     1.000000000  0.333333343  0.216821102
     0.333333313  0.333333343  0.216821102
     0.666666687  0.333333343  0.216821102
     1.000000000  0.666666687  0.216821102
     0.333333313  0.666666687  0.216821102
     0.666666627  0.666666687  0.216821102
     0.111111104  0.111111112  0.315035970
     0.444444448  0.111111112  0.315035970
     0.777777791  0.111111112  0.315035970
     0.111111097  0.444444448  0.315035970
     0.444444418  0.444444448  0.315035970
     0.777777791  0.444444448  0.315035970
     0.111111104  0.777777791  0.315035970
     0.444444448  0.777777791  0.315035970
     0.777777791  0.777777791  0.315035970
     0.888965348  0.222069319  0.412587630
     0.222608922  0.222608937  0.412157002
     0.554782097  0.222608937  0.412157002
     0.888549089  0.555725486  0.412834109
     0.222608937  0.554782157  0.412157002
     0.555725486  0.555725486  0.412834109
     0.888965348  0.888965348  0.412587630
     0.222069289  0.888965348  0.412587630
     0.555725426  0.888549089  0.412834109
     0.000000000  0.000000000  0.510391242
     0.333630460  0.003871759  0.511419003
     0.662497721  0.003871759  0.511419003
     0.003871759  0.333630490  0.511419003
     0.662497781  0.333630490  0.511419003
     0.003871759  0.662497781  0.511419003
     0.333630460  0.662497781  0.511419003
     0.666666627  0.666666687  0.511218239
     0.333333313  0.333333343  0.504979628
     0.333333313  0.333333343  0.578474305

  ion indices of the primitive-cell ions
   primitive index   ion index
                 1           1
                 2           2
                 3           3
                 4           4
                 5           5
                 6           6
                 7           7
                 8           8
                 9           9
                10          10
                11          11
                12          12
                13          13
                14          14
                15          15
                16          16
                17          17
                18          18
                19          19
                20          20
                21          21
                22          22
                23          23
                24          24
                25          25
                26          26
                27          27
                28          28
                29          29
                30          30
                31          31
                32          32
                33          33
                34          34
                35          35
                36          36
                37          37

----------------------------------------------------------------------------------------

 
 
 KPOINTS: Automatic mesh                          

Automatic generation of k-mesh.
 Grid dimensions read from file:
 generate k-points for:    8    8    1

 Generating k-lattice:

  Cartesian coordinates                     Fractional coordinates (reciprocal lattice)
     0.014218495 -0.008209052  0.000000000     0.125000000 -0.000000000  0.000000000
     0.000000000  0.016418104  0.000000000     0.000000000  0.125000000  0.000000000
     0.000000000  0.000000000  0.041047592     0.000000000  0.000000000  1.000000000

  Length of vectors
     0.016418104  0.016418104  0.041047592

  Shift w.r.t. Gamma in fractional coordinates (k-lattice)
     0.000000000  0.000000000  0.000000000

 TETIRR: Found     36 inequivalent tetrahedra from      384
 
 Subroutine IBZKPT returns following result:
 ===========================================
 
 Found     10 irreducible k-points:
 
 Following reciprocal coordinates:
            Coordinates               Weight
  0.000000  0.000000  0.000000      1.000000
  0.125000  0.000000  0.000000      6.000000
  0.250000  0.000000  0.000000      6.000000
  0.375000 -0.000000  0.000000      6.000000
  0.500000  0.000000  0.000000      3.000000
  0.250000  0.125000  0.000000      6.000000
  0.375000  0.125000  0.000000     12.000000
  0.500000  0.125000  0.000000     12.000000
  0.500000  0.250000  0.000000      6.000000
 -0.375000  0.250000  0.000000      6.000000
 
 Following cartesian coordinates:
            Coordinates               Weight
  0.000000  0.000000  0.000000      1.000000
  0.014218 -0.008209  0.000000      6.000000
  0.028437 -0.016418  0.000000      6.000000
  0.042655 -0.024627  0.000000      6.000000
  0.056874 -0.032836  0.000000      3.000000
  0.028437 -0.000000  0.000000      6.000000
  0.042655 -0.008209  0.000000     12.000000
  0.056874 -0.016418  0.000000     12.000000
  0.056874 -0.000000  0.000000      6.000000
 -0.042655  0.057463  0.000000      6.000000
 


--------------------------------------------------------------------------------------------------------




 Dimension of arrays:
   k-points           NKPTS =     10   k-points in BZ     NKDIM =     10   number of bands    NBANDS=    252
   number of dos      NEDOS =    301   number of ions     NIONS =     37
   non local maximal  LDIM  =      6   non local SUM 2l+1 LMDIM =     18
   total plane-waves  NPLWV = 322560
   max r-space proj   IRMAX =   3221   max aug-charges    IRDMAX=  13860
   dimension x,y,z NGX =    48 NGY =   48 NGZ =  140
   dimension x,y,z NGXF=    96 NGYF=   96 NGZF=  280
   support grid    NGXF=    96 NGYF=   96 NGZF=  280
   ions per type =              35   1   1
   NGX,Y,Z   is equivalent  to a cutoff of   9.08,  9.08,  9.55 a.u.
   NGXF,Y,Z  is equivalent  to a cutoff of  18.15, 18.15, 19.11 a.u.

 SYSTEM =  unknown system                          
 POSCAR =  Ag-Ti-C                                 

 Startparameter for this run:
   NWRITE =      2    write-flag & timer
   PREC   = normal    normal or accurate (medium, high low for compatibility)
   ISTART =      0    job   : 0-new  1-cont  2-samecut
   ICHARG =     11    charge: 1-file 2-atom 10-const
   ISPIN  =      1    spin polarized calculation?
   LNONCOLLINEAR =      F non collinear calculations
   LSORBIT =      F    spin-orbit coupling
   INIWAV =      1    electr: 0-lowe 1-rand  2-diag
   LASPH  =      F    aspherical Exc in radial PAW
   METAGGA=      F    non-selfconsistent MetaGGA calc.

 Electronic Relaxation 1
   ENCUT  =  500.0 eV  36.75 Ry    6.06 a.u.  16.03 16.03 44.42*2*pi/ulx,y,z
   ENINI  =  500.0     initial cutoff
   ENAUG  =  644.9 eV  augmentation charge cutoff
   NELM   =    150;   NELMIN=  2; NELMDL= -5     # of ELM steps 
   EDIFF  = 0.1E-04   stopping-criterion for ELM
   LREAL  =      T    real-space projection
   NLSPLINE    = F    spline interpolate recip. space projectors
   LCOMPAT=      F    compatible to vasp.4.4
   GGA_COMPAT  = T    GGA compatible to vasp.4.4-vasp.4.6
   LMAXPAW     = -100 max onsite density
   LMAXMIX     =    2 max onsite mixed and CHGCAR
   VOSKOWN=      0    Vosko Wilk Nusair interpolation
   ROPT   =   -0.00050  -0.00050  -0.00050
 Ionic relaxation
   EDIFFG = -.1E-01   stopping-criterion for IOM
   NSW    =      0    number of steps for IOM
   NBLOCK =      1;   KBLOCK =      1    inner block; outer block 
   IBRION =     -1    ionic relax: 0-MD 1-quasi-New 2-CG
   NFREE  =      1    steps in history (QN), initial steepest desc. (CG)
   ISIF   =      2    stress and relaxation
   IWAVPR =     10    prediction:  0-non 1-charg 2-wave 3-comb
   ISYM   =      2    0-nonsym 1-usesym 2-fastsym
   LCORR  =      T    Harris-Foulkes like correction to forces

   POTIM  = 0.5000    time-step for ionic-motion
   TEIN   =    0.0    initial temperature
   TEBEG  =    0.0;   TEEND  =   0.0 temperature during run
   SMASS  =  -3.00    Nose mass-parameter (am)
   estimated Nose-frequenzy (Omega)   =  0.10E-29 period in steps = 0.13E+47 mass=  -0.177E-26a.u.
   SCALEE = 1.0000    scale energy and forces
   NPACO  =    256;   APACO  = 16.0  distance and # of slots for P.C.
   PSTRESS=    0.0 pullay stress

  Mass of Ions in am
   POMASS = 107.87 47.88 12.01
  Ionic Valenz
   ZVAL   =  11.00  4.00  4.00
  Atomic Wigner-Seitz radii
   RWIGS  =  -1.00 -1.00 -1.00
  virtual crystal weights 
   VCA    =   1.00  1.00  1.00
   NELECT =     393.0000    total number of electrons
   NUPDOWN=      -1.0000    fix difference up-down

 DOS related values:
   EMIN   =  10.00;   EMAX   =-10.00  energy-range for DOS
   EFERMI =   0.00
   ISMEAR =    -5;   SIGMA  =   0.10  broadening in eV -4-tet -1-fermi 0-gaus

 Electronic relaxation 2 (details)
   IALGO  =     68    algorithm
   LDIAG  =      T    sub-space diagonalisation (order eigenvalues)
   LSUBROT=      F    optimize rotation matrix (better conditioning)
   TURBO    =      0    0=normal 1=particle mesh
   IRESTART =      0    0=no restart 2=restart with 2 vectors
   NREBOOT  =      0    no. of reboots
   NMIN     =      0    reboot dimension
   EREF     =   0.00    reference energy to select bands
   IMIX   =      4    mixing-type and parameters
     AMIX     =   0.40;   BMIX     =  1.00
     AMIX_MAG =   1.60;   BMIX_MAG =  1.00
     AMIN     =   0.10
     WC   =   100.;   INIMIX=   1;  MIXPRE=   1;  MAXMIX= -45

 Intra band minimization:
   WEIMIN = 0.0000     energy-eigenvalue tresh-hold
   EBREAK =  0.99E-08  absolut break condition
   DEPER  =   0.30     relativ break condition  

   TIME   =   0.40     timestep for ELM

  volume/ion in A,a.u.               =      44.07       297.41
  Fermi-wavevector in a.u.,A,eV,Ry     =   1.018796  1.925245 14.122095  1.037945
  Thomas-Fermi vector in A             =   2.152273
 
 Write flags
   LWAVE        =      F    write WAVECAR
   LDOWNSAMPLE  =      F    k-point downsampling of WAVECAR
   LCHARG       =      F    write CHGCAR
   LVTOT        =      F    write LOCPOT, total local potential
   LVHAR        =      F    write LOCPOT, Hartree potential only
   LELF         =      F    write electronic localiz. function (ELF)
   LORBIT       =     10    0 simple, 1 ext, 2 COOP (PROOUT), +10 PAW based schemes


 Dipole corrections
   LMONO  =      F    monopole corrections only (constant potential shift)
   LDIPOL =      F    correct potential (dipole corrections)
   IDIPOL =      0    1-x, 2-y, 3-z, 4-all directions 
   EPSILON=  1.0000000 bulk dielectric constant

 Exchange correlation treatment:
   GGA     =    --    GGA type
   LEXCH   =     8    internal setting for exchange type
   VOSKOWN=      0    Vosko Wilk Nusair interpolation
   LHFCALC =     F    Hartree Fock is set to
   LHFONE  =     F    Hartree Fock one center treatment
   AEXX    =    0.0000 exact exchange contribution

 Linear response parameters
   LEPSILON=     F    determine dielectric tensor
   LRPA    =     F    only Hartree local field effects (RPA)
   LNABLA  =     F    use nabla operator in PAW spheres
   LVEL    =     F    velocity operator in full k-point grid
   LINTERFAST=   F  fast interpolation
   KINTER  =     0    interpolate to denser k-point grid
   CSHIFT  =0.1000    complex shift for real part using Kramers Kronig
   OMEGAMAX=  -1.0    maximum frequency
   DEG_THRESHOLD= 0.2000000E-02 threshold for treating states as degnerate
   RTIME   =   -0.100 relaxation time in fs
  (WPLASMAI=    0.000 imaginary part of plasma frequency in eV, 0.658/RTIME)
   DFIELD  = 0.0000000 0.0000000 0.0000000 field for delta impulse in time
 
 Orbital magnetization related:
   ORBITALMAG=     F  switch on orbital magnetization
   LCHIMAG   =     F  perturbation theory with respect to B field
   DQ        =  0.001000  dq finite difference perturbation B field
   LLRAUG    =     F  two centre corrections for induced B field



--------------------------------------------------------------------------------------------------------


 Static calculation
 charge density and potential remain constant during run
 non-spin polarized calculation
 RMM-DIIS sequential band-by-band and
  variant of blocked Davidson during initial phase
 perform sub-space diagonalisation
    before iterative eigenvector-optimisation
 no mixing
 using additional bands           55
 real space projection scheme for non local part
 use partial core corrections
 calculate Harris-corrections to forces 
   (improved forces if not selfconsistent)
 use gradient corrections 
 WARNING: stress and forces are not correct
  (second derivative of E(xc) not defined)
 use of overlap-Matrix (Vanderbilt PP)
 Fermi weights with tetrahedron method with Bloechl corrections


--------------------------------------------------------------------------------------------------------


  energy-cutoff  :      500.00
  volume of cell :     1630.63
      direct lattice vectors                 reciprocal lattice vectors
     8.791366577  0.000000000  0.000000000     0.113747958 -0.065672414  0.000000000
     4.395683289  7.613546790  0.000000000     0.000000000  0.131344829  0.000000000
     0.000000000  0.000000000 24.361965240     0.000000000  0.000000000  0.041047592

  length of vectors
     8.791366577  8.791366577 24.361965240     0.131344829  0.131344829  0.041047592


 
 k-points in units of 2pi/SCALE and weight: Automatic mesh                          
   0.00000000  0.00000000  0.00000000       0.016
   0.01421849 -0.00820905  0.00000000       0.094
   0.02843699 -0.01641810  0.00000000       0.094
   0.04265548 -0.02462716  0.00000000       0.094
   0.05687398 -0.03283621  0.00000000       0.047
   0.02843699 -0.00000000  0.00000000       0.094
   0.04265548 -0.00820905  0.00000000       0.188
   0.05687398 -0.01641810  0.00000000       0.188
   0.05687398 -0.00000000  0.00000000       0.094
  -0.04265548  0.05746336  0.00000000       0.094
 
 k-points in reciprocal lattice and weights: Automatic mesh                          
   0.00000000  0.00000000  0.00000000       0.016
   0.12500000  0.00000000  0.00000000       0.094
   0.25000000  0.00000000  0.00000000       0.094
   0.37500000 -0.00000000  0.00000000       0.094
   0.50000000  0.00000000  0.00000000       0.047
   0.25000000  0.12500000  0.00000000       0.094
   0.37500000  0.12500000  0.00000000       0.188
   0.50000000  0.12500000  0.00000000       0.188
   0.50000000  0.25000000  0.00000000       0.094
  -0.37500000  0.25000000  0.00000000       0.094
 
 position of ions in fractional coordinates (direct lattice) 
   0.00000000  0.00000000  0.21682110
   0.33333331  0.00000000  0.21682110
   0.66666663  0.00000000  0.21682110
   0.00000000  0.33333334  0.21682110
   0.33333331  0.33333334  0.21682110
   0.66666669  0.33333334  0.21682110
   0.00000000  0.66666669  0.21682110
   0.33333331  0.66666669  0.21682110
   0.66666663  0.66666669  0.21682110
   0.11111110  0.11111111  0.31503597
   0.44444445  0.11111111  0.31503597
   0.77777779  0.11111111  0.31503597
   0.11111110  0.44444445  0.31503597
   0.44444442  0.44444445  0.31503597
   0.77777779  0.44444445  0.31503597
   0.11111110  0.77777779  0.31503597
   0.44444445  0.77777779  0.31503597
   0.77777779  0.77777779  0.31503597
   0.88896535  0.22206932  0.41258763
   0.22260892  0.22260894  0.41215700
   0.55478210  0.22260894  0.41215700
   0.88854909  0.55572549  0.41283411
   0.22260894  0.55478216  0.41215700
   0.55572549  0.55572549  0.41283411
   0.88896535  0.88896535  0.41258763
   0.22206929  0.88896535  0.41258763
   0.55572543  0.88854909  0.41283411
   0.00000000  0.00000000  0.51039124
   0.33363046  0.00387176  0.51141900
   0.66249772  0.00387176  0.51141900
   0.00387176  0.33363049  0.51141900
   0.66249778  0.33363049  0.51141900
   0.00387176  0.66249778  0.51141900
   0.33363046  0.66249778  0.51141900
   0.66666663  0.66666669  0.51121824
   0.33333331  0.33333334  0.50497963
   0.33333331  0.33333334  0.57847431
 
 position of ions in cartesian coordinates  (Angst):
   0.00000000  0.00000000  5.28218814
   2.93045535  0.00000000  5.28218814
   5.86091070  0.00000000  5.28218814
   1.46522781  2.53784900  5.28218814
   4.39568315  2.53784900  5.28218814
   7.32613904  2.53784900  5.28218814
   2.93045562  5.07569801  5.28218814
   5.86091096  5.07569801  5.28218814
   8.79136632  5.07569801  5.28218814
   1.46522770  0.84594965  7.67489535
   4.39568332  0.84594965  7.67489535
   7.32613893  0.84594965  7.67489535
   2.93045542  3.38379860  7.67489535
   5.86091083  3.38379860  7.67489535
   8.79136671  3.38379860  7.67489535
   4.39568328  5.92164760  7.67489535
   7.32613890  5.92164760  7.67489535
  10.25659451  5.92164760  7.67489535
   8.79136665  1.69073515 10.05144549
   2.93555502  1.69484356 10.04095455
   5.85581116  1.69484356 10.04095455
  10.25435399  4.23104199 10.05745020
   4.39568342  4.22385991 10.04095455
   7.32837969  4.23104199 10.05745020
  11.72283038  6.76817927 10.05144549
   5.85990265  6.76817927 10.05144549
   8.79136631  6.76501006 10.05745020
   0.00000000  0.00000000 12.43413371
   2.95008670  0.02947782 12.45917197
   5.84127935  0.02947782 12.45917197
   1.50057202  2.54011134 12.45917197
   7.29079482  2.54011134 12.45917197
   2.94616848  5.04395785 12.45917197
   5.84519810  5.04395785 12.45917197
   8.79136632  5.07569801 12.45428096
   4.39568315  2.53784900 12.30229615
   4.39568315  2.53784900 14.09277092
 


--------------------------------------------------------------------------------------------------------


 k-point   1 :   0.0000 0.0000 0.0000  plane waves:   41267
 k-point   2 :   0.1250 0.0000 0.0000  plane waves:   41346
 k-point   3 :   0.2500 0.0000 0.0000  plane waves:   41360
 k-point   4 :   0.3750-0.0000 0.0000  plane waves:   41412
 k-point   5 :   0.5000 0.0000 0.0000  plane waves:   41412
 k-point   6 :   0.2500 0.1250 0.0000  plane waves:   41336
 k-point   7 :   0.3750 0.1250 0.0000  plane waves:   41420
 k-point   8 :   0.5000 0.1250 0.0000  plane waves:   41406
 k-point   9 :   0.5000 0.2500 0.0000  plane waves:   41444
 k-point  10 :  -0.3750 0.2500 0.0000  plane waves:   41438

 maximum and minimum number of plane-waves per node :     41444    41267

 maximum number of plane-waves:     41444
 maximum index in each direction: 
   IXMAX=   16   IYMAX=   16   IZMAX=   44
   IXMIN=  -16   IYMIN=  -16   IZMIN=  -44


 serial   3D FFT for wavefunctions
 parallel 3D FFT for charge:
    minimum data exchange during FFTs selected (reduces bandwidth)


 total amount of memory used by VASP MPI-rank0   131478. kBytes
=======================================================================

   base      :      30000. kBytes
   nonlr-proj:      15557. kBytes
   fftplans  :       4808. kBytes
   grid      :      19857. kBytes
   one-center:        575. kBytes
   wavefun   :      60681. kBytes
 
     INWAV:  cpu time    0.0000: real time    0.0000
 initial charge density was supplied:
 number of electron     393.0000078 magnetization 
 keeping initial charge density in first step


--------------------------------------------------------------------------------------------------------


 Maximum index for non-local projection operator         3054
 Maximum index for augmentation-charges          717 (set IRDMAX)


--------------------------------------------------------------------------------------------------------


 First call to EWALD:  gamma=   0.151
 Maximum number of real-space cells 4x 4x 2
 Maximum number of reciprocal cells 2x 2x 5

    FEWALD:  cpu time    0.0013: real time    0.0013


--------------------------------------- Iteration      1(   1)  ---------------------------------------


    POTLOK:  cpu time    0.0486: real time    0.0491
    SETDIJ:  cpu time    0.0053: real time    0.0054
     EDDAV:  cpu time    7.8511: real time    7.8526
 BZINTS: Fermi energy:    8.855143;  393.000000 electrons
         Band energy: 0.941514E+03;  BLOECHL correction:   -0.014985
       DOS:  cpu time    0.0096: real time    0.0097
    --------------------------------------------
      LOOP:  cpu time    7.9146: real time    7.9168

 eigenvalue-minimisations  :  5040
 total energy-change (2. order) : 0.2385134E+04  (-0.1772686E+05)
 number of electron     393.0000078 magnetization 
 augmentation part      393.0000078 magnetization 

 Free energy of the ion-electron system (eV)
  ---------------------------------------------------
  alpha Z        PSCENC =       678.45256338
  Ewald energy   TEWEN  =    127837.22963743
  -Hartree energ DENC   =   -164779.98574188
  -exchange      EXHF   =         0.00000000
  -V(xc)+E(xc)   XCENC  =      -413.96653660
  PAW double counting   =     38788.24635275   -37212.47841489
  entropy T*S    EENTRO =         0.00000000
  eigenvalues    EBANDS =       941.51401462
  atomic energy  EATOM  =     36546.12189201
  Solvation  Ediel_sol  =         0.00000000
  ---------------------------------------------------
  free energy    TOTEN  =      2385.13376682 eV

  energy without entropy =     2385.13376682  energy(sigma->0) =     2385.13376682


--------------------------------------------------------------------------------------------------------




--------------------------------------- Iteration      1(   2)  ---------------------------------------


     EDDAV:  cpu time    8.1890: real time    8.1924
 BZINTS: Fermi energy:    0.829783;  393.000000 electrons
         Band energy:-0.146003E+04;  BLOECHL correction:   -0.019243
       DOS:  cpu time    0.0094: real time    0.0094
    --------------------------------------------
      LOOP:  cpu time    8.1984: real time    8.2018

 eigenvalue-minimisations  :  5320
 total energy-change (2. order) :-0.2401546E+04  (-0.2270421E+04)
 number of electron     393.0000078 magnetization 
 augmentation part      393.0000078 magnetization 

 Free energy of the ion-electron system (eV)
  ---------------------------------------------------
  alpha Z        PSCENC =       678.45256338
  Ewald energy   TEWEN  =    127837.22963743
  -Hartree energ DENC   =   -164779.98574188
  -exchange      EXHF   =         0.00000000
  -V(xc)+E(xc)   XCENC  =      -413.96653660
  PAW double counting   =     38788.24635275   -37212.47841489
  entropy T*S    EENTRO =         0.00000000
  eigenvalues    EBANDS =     -1460.03243079
  atomic energy  EATOM  =     36546.12189201
  Solvation  Ediel_sol  =         0.00000000
  ---------------------------------------------------
  free energy    TOTEN  =       -16.41267859 eV

  energy without entropy =      -16.41267859  energy(sigma->0) =      -16.41267859


--------------------------------------------------------------------------------------------------------




--------------------------------------- Iteration      1(   3)  ---------------------------------------


     EDDAV:  cpu time    8.8960: real time    8.8963
 BZINTS: Fermi energy:    0.209836;  393.000000 electrons
         Band energy:-0.154357E+04;  BLOECHL correction:   -0.041255
       DOS:  cpu time    0.0100: real time    0.0100
    --------------------------------------------
      LOOP:  cpu time    8.9060: real time    8.9063

 eigenvalue-minimisations  :  5880
 total energy-change (2. order) :-0.8353293E+02  (-0.8099098E+02)
 number of electron     393.0000078 magnetization 
 augmentation part      393.0000078 magnetization 

 Free energy of the ion-electron system (eV)
  ---------------------------------------------------
  alpha Z        PSCENC =       678.45256338
  Ewald energy   TEWEN  =    127837.22963743
  -Hartree energ DENC   =   -164779.98574188
  -exchange      EXHF   =         0.00000000
  -V(xc)+E(xc)   XCENC  =      -413.96653660
  PAW double counting   =     38788.24635275   -37212.47841489
  entropy T*S    EENTRO =         0.00000000
  eigenvalues    EBANDS =     -1543.56535958
  atomic energy  EATOM  =     36546.12189201
  Solvation  Ediel_sol  =         0.00000000
  ---------------------------------------------------
  free energy    TOTEN  =       -99.94560737 eV

  energy without entropy =      -99.94560737  energy(sigma->0) =      -99.94560737


--------------------------------------------------------------------------------------------------------




--------------------------------------- Iteration      1(   4)  ---------------------------------------


     EDDAV:  cpu time    8.6034: real time    8.6035
 BZINTS: Fermi energy:    0.190486;  393.000000 electrons
         Band energy:-0.154491E+04;  BLOECHL correction:   -0.043863
       DOS:  cpu time    0.0098: real time    0.0098
    --------------------------------------------
      LOOP:  cpu time    8.6131: real time    8.6133

 eigenvalue-minimisations  :  5656
 total energy-change (2. order) :-0.1341710E+01  (-0.1336809E+01)
 number of electron     393.0000078 magnetization 
 augmentation part      393.0000078 magnetization 

 Free energy of the ion-electron system (eV)
  ---------------------------------------------------
  alpha Z        PSCENC =       678.45256338
  Ewald energy   TEWEN  =    127837.22963743
  -Hartree energ DENC   =   -164779.98574188
  -exchange      EXHF   =         0.00000000
  -V(xc)+E(xc)   XCENC  =      -413.96653660
  PAW double counting   =     38788.24635275   -37212.47841489
  entropy T*S    EENTRO =         0.00000000
  eigenvalues    EBANDS =     -1544.90706940
  atomic energy  EATOM  =     36546.12189201
  Solvation  Ediel_sol  =         0.00000000
  ---------------------------------------------------
  free energy    TOTEN  =      -101.28731720 eV

  energy without entropy =     -101.28731720  energy(sigma->0) =     -101.28731720


--------------------------------------------------------------------------------------------------------




--------------------------------------- Iteration      1(   5)  ---------------------------------------


     EDDAV:  cpu time    9.3288: real time    9.3289
 BZINTS: Fermi energy:    0.190181;  393.000000 electrons
         Band energy:-0.154494E+04;  BLOECHL correction:   -0.043894
       DOS:  cpu time    0.0092: real time    0.0092
    --------------------------------------------
      LOOP:  cpu time    9.3380: real time    9.3381

 eigenvalue-minimisations  :  6216
 total energy-change (2. order) :-0.3480464E-01  (-0.3480137E-01)
 number of electron     393.0000078 magnetization 
 augmentation part      393.0000078 magnetization 

 Free energy of the ion-electron system (eV)
  ---------------------------------------------------
  alpha Z        PSCENC =       678.45256338
  Ewald energy   TEWEN  =    127837.22963743
  -Hartree energ DENC   =   -164779.98574188
  -exchange      EXHF   =         0.00000000
  -V(xc)+E(xc)   XCENC  =      -413.96653660
  PAW double counting   =     38788.24635275   -37212.47841489
  entropy T*S    EENTRO =         0.00000000
  eigenvalues    EBANDS =     -1544.94187404
  atomic energy  EATOM  =     36546.12189201
  Solvation  Ediel_sol  =         0.00000000
  ---------------------------------------------------
  free energy    TOTEN  =      -101.32212184 eV

  energy without entropy =     -101.32212184  energy(sigma->0) =     -101.32212184


--------------------------------------------------------------------------------------------------------




--------------------------------------- Iteration      1(   6)  ---------------------------------------


    EDDIAG:  cpu time    1.5368: real time    1.5371
  RMM-DIIS:  cpu time    4.4284: real time    4.4285
    ORTHCH:  cpu time    0.2818: real time    0.2818
 BZINTS: Fermi energy:    0.190176;  393.000000 electrons
         Band energy:-0.154494E+04;  BLOECHL correction:   -0.043894
       DOS:  cpu time    0.0095: real time    0.0095
    --------------------------------------------
      LOOP:  cpu time    6.2566: real time    6.2569

 eigenvalue-minimisations  :  5095
 total energy-change (2. order) :-0.9101644E-03  (-0.9105540E-03)
 number of electron     393.0000078 magnetization 
 augmentation part      393.0000078 magnetization 

 Free energy of the ion-electron system (eV)
  ---------------------------------------------------
  alpha Z        PSCENC =       678.45256338
  Ewald energy   TEWEN  =    127837.22963743
  -Hartree energ DENC   =   -164779.98574188
  -exchange      EXHF   =         0.00000000
  -V(xc)+E(xc)   XCENC  =      -413.96653660
  PAW double counting   =     38788.24635275   -37212.47841489
  entropy T*S    EENTRO =         0.00000000
  eigenvalues    EBANDS =     -1544.94278420
  atomic energy  EATOM  =     36546.12189201
  Solvation  Ediel_sol  =         0.00000000
  ---------------------------------------------------
  free energy    TOTEN  =      -101.32303200 eV

  energy without entropy =     -101.32303200  energy(sigma->0) =     -101.32303200


--------------------------------------------------------------------------------------------------------




--------------------------------------- Iteration      1(   7)  ---------------------------------------


    EDDIAG:  cpu time    1.5382: real time    1.5383
  RMM-DIIS:  cpu time    6.1981: real time    6.1981
    ORTHCH:  cpu time    0.2811: real time    0.2811
 BZINTS: Fermi energy:    0.190175;  393.000000 electrons
         Band energy:-0.154494E+04;  BLOECHL correction:   -0.043894
       DOS:  cpu time    0.0097: real time    0.0097
    --------------------------------------------
      LOOP:  cpu time    8.0271: real time    8.0273

 eigenvalue-minimisations  :  7252
 total energy-change (2. order) :-0.3241387E-03  (-0.3231524E-03)
 number of electron     393.0000078 magnetization 
 augmentation part      393.0000078 magnetization 

 Free energy of the ion-electron system (eV)
  ---------------------------------------------------
  alpha Z        PSCENC =       678.45256338
  Ewald energy   TEWEN  =    127837.22963743
  -Hartree energ DENC   =   -164779.98574188
  -exchange      EXHF   =         0.00000000
  -V(xc)+E(xc)   XCENC  =      -413.96653660
  PAW double counting   =     38788.24635275   -37212.47841489
  entropy T*S    EENTRO =         0.00000000
  eigenvalues    EBANDS =     -1544.94310834
  atomic energy  EATOM  =     36546.12189201
  Solvation  Ediel_sol  =         0.00000000
  ---------------------------------------------------
  free energy    TOTEN  =      -101.32335614 eV

  energy without entropy =     -101.32335614  energy(sigma->0) =     -101.32335614


--------------------------------------------------------------------------------------------------------




--------------------------------------- Iteration      1(   8)  ---------------------------------------


    EDDIAG:  cpu time    1.5382: real time    1.5384
  RMM-DIIS:  cpu time    4.1469: real time    4.1469
    ORTHCH:  cpu time    0.2819: real time    0.2819
 BZINTS: Fermi energy:    0.190175;  393.000000 electrons
         Band energy:-0.154494E+04;  BLOECHL correction:   -0.043894
       DOS:  cpu time    0.0097: real time    0.0097
    --------------------------------------------
      LOOP:  cpu time    5.9768: real time    5.9770

 eigenvalue-minimisations  :  4233
 total energy-change (2. order) :-0.2043403E-04  (-0.2006682E-04)
 number of electron     393.0000078 magnetization 
 augmentation part      393.0000078 magnetization 

 Free energy of the ion-electron system (eV)
  ---------------------------------------------------
  alpha Z        PSCENC =       678.45256338
  Ewald energy   TEWEN  =    127837.22963743
  -Hartree energ DENC   =   -164779.98574188
  -exchange      EXHF   =         0.00000000
  -V(xc)+E(xc)   XCENC  =      -413.96653660
  PAW double counting   =     38788.24635275   -37212.47841489
  entropy T*S    EENTRO =         0.00000000
  eigenvalues    EBANDS =     -1544.94312878
  atomic energy  EATOM  =     36546.12189201
  Solvation  Ediel_sol  =         0.00000000
  ---------------------------------------------------
  free energy    TOTEN  =      -101.32337658 eV

  energy without entropy =     -101.32337658  energy(sigma->0) =     -101.32337658


--------------------------------------------------------------------------------------------------------




--------------------------------------- Iteration      1(   9)  ---------------------------------------


    EDDIAG:  cpu time    1.5377: real time    1.5378
  RMM-DIIS:  cpu time    3.7784: real time    3.7784
    ORTHCH:  cpu time    0.2821: real time    0.2821
 BZINTS: Fermi energy:    0.190174;  393.000000 electrons
         Band energy:-0.154494E+04;  BLOECHL correction:   -0.043894
       DOS:  cpu time    0.0099: real time    0.0099
    --------------------------------------------
      LOOP:  cpu time    5.6081: real time    5.6082

 eigenvalue-minimisations  :  3421
 total energy-change (2. order) :-0.3780791E-05  (-0.3760494E-05)
 number of electron     393.0000078 magnetization 
 augmentation part      393.0000078 magnetization 

 Free energy of the ion-electron system (eV)
  ---------------------------------------------------
  alpha Z        PSCENC =       678.45256338
  Ewald energy   TEWEN  =    127837.22963743
  -Hartree energ DENC   =   -164779.98574188
  -exchange      EXHF   =         0.00000000
  -V(xc)+E(xc)   XCENC  =      -413.96653660
  PAW double counting   =     38788.24635275   -37212.47841489
  entropy T*S    EENTRO =         0.00000000
  eigenvalues    EBANDS =     -1544.94313256
  atomic energy  EATOM  =     36546.12189201
  Solvation  Ediel_sol  =         0.00000000
  ---------------------------------------------------
  free energy    TOTEN  =      -101.32338036 eV

  energy without entropy =     -101.32338036  energy(sigma->0) =     -101.32338036


--------------------------------------------------------------------------------------------------------




 average (electrostatic) potential at core
  the test charge radii are     1.1249  1.2598  0.6991
  (the norm of the test charge is              1.0000)
       1 -78.7405       2 -78.7358       3 -78.7358       4 -78.7358       5 -78.7245
       6 -78.7356       7 -78.7358       8 -78.7355       9 -78.7358      10 -78.9717
      11 -78.9711      12 -78.9716      13 -78.9711      14 -78.9709      15 -78.9604
      16 -78.9716      17 -78.9604      18 -78.9605      19 -78.9461      20 -79.1102
      21 -79.1103      22 -78.9391      23 -79.1103      24 -78.9392      25 -78.9461
      26 -78.9461      27 -78.9391      28 -78.7299      29 -78.7736      30 -78.7737
      31 -78.7736      32 -78.7736      33 -78.7737      34 -78.7736      35 -78.7192
      36 -29.1876      37 -54.0600
 
 
 
 E-fermi :   0.1902     XC(G=0):  -5.4348     alpha+bet : -5.1047

 Fermi energy:         0.1901744827

 k-point     1 :       0.0000    0.0000    0.0000
  band No.  band energies     occupation 
      1      -7.6515      2.00000
      2      -6.9296      2.00000
      3      -6.0787      2.00000
      4      -5.8026      2.00000
      5      -5.7018      2.00000
      6      -5.6961      2.00000
      7      -5.6961      2.00000
      8      -5.6941      2.00000
      9      -5.6941      2.00000
     10      -5.6918      2.00000
     11      -5.6711      2.00000
     12      -5.6534      2.00000
     13      -5.6534      2.00000
     14      -5.6443      2.00000
     15      -5.6392      2.00000
     16      -5.6392      2.00000
     17      -5.6012      2.00000
     18      -5.4961      2.00000
     19      -5.4950      2.00000
     20      -5.4950      2.00000
     21      -5.4766      2.00000
     22      -5.4696      2.00000
     23      -5.4696      2.00000
     24      -5.3147      2.00000
     25      -5.2963      2.00000
     26      -5.2963      2.00000
     27      -5.2751      2.00000
     28      -5.2713      2.00000
     29      -5.2625      2.00000
     30      -5.2625      2.00000
     31      -5.2605      2.00000
     32      -5.2394      2.00000
     33      -5.2394      2.00000
     34      -5.2275      2.00000
     35      -5.2275      2.00000
     36      -5.1601      2.00000
     37      -5.1466      2.00000
     38      -5.1466      2.00000
     39      -5.0798      2.00000
     40      -5.0283      2.00000
     41      -5.0283      2.00000
     42      -4.9102      2.00000
     43      -4.9102      2.00000
     44      -4.8957      2.00000
     45      -4.8906      2.00000
     46      -4.8906      2.00000
     47      -4.8809      2.00000
     48      -4.8808      2.00000
     49      -4.8755      2.00000
     50      -4.8504      2.00000
     51      -4.8503      2.00000
     52      -4.7399      2.00000
     53      -4.7396      2.00000
     54      -4.7102      2.00000
     55      -4.7079      2.00000
     56      -4.5380      2.00000
     57      -4.5215      2.00000
     58      -4.5215      2.00000
     59      -4.5104      2.00000
     60      -4.5104      2.00000
     61      -4.5101      2.00000
     62      -4.4886      2.00000
     63      -4.4828      2.00000
     64      -4.4828      2.00000
     65      -4.4477      2.00000
     66      -4.4477      2.00000
     67      -4.3573      2.00000
     68      -4.3573      2.00000
     69      -4.3477      2.00000
     70      -4.3477      2.00000
     71      -4.3429      2.00000
     72      -4.3388      2.00000
     73      -4.3322      2.00000
     74      -4.3322      2.00000
     75      -4.3116      2.00000
     76      -4.3116      2.00000
     77      -4.3040      2.00000
     78      -4.2767      2.00000
     79      -4.2668      2.00000
     80      -4.2668      2.00000
     81      -4.2523      2.00000
     82      -4.2522      2.00000
     83      -4.2413      2.00000
     84      -4.1951      2.00000
     85      -4.1951      2.00000
     86      -4.1543      2.00000
     87      -4.1543      2.00000
     88      -4.1276      2.00000
     89      -4.1168      2.00000
     90      -4.1168      2.00000
     91      -4.1064      2.00000
     92      -4.1064      2.00000
     93      -4.0389      2.00000
     94      -4.0389      2.00000
     95      -4.0227      2.00000
     96      -4.0227      2.00000
     97      -4.0178      2.00000
     98      -4.0035      2.00000
     99      -4.0035      2.00000
    100      -3.8173      2.00000
    101      -3.7976      2.00000
    102      -3.7976      2.00000
    103      -3.7843      2.00000
    104      -3.7843      2.00000
    105      -3.7679      2.00000
    106      -3.7610      2.00000
    107      -3.7610      2.00000
    108      -3.7391      2.00000
    109      -3.7222      2.00000
    110      -3.7222      2.00000
    111      -3.6770      2.00000
    112      -3.6712      2.00000
    113      -3.6238      2.00000
    114      -3.6238      2.00000
    115      -3.5801      2.00000
    116      -3.5502      2.00000
    117      -3.5502      2.00000
    118      -3.5072      2.00000
    119      -3.5071      2.00000
    120      -3.4990      2.00000
    121      -3.4990      2.00000
    122      -3.4576      2.00000
    123      -3.4576      2.00000
    124      -3.4433      2.00000
    125      -3.4254      2.00000
    126      -3.4253      2.00000
    127      -3.4155      2.00000
    128      -3.4107      2.00000
    129      -3.4106      2.00000
    130      -3.3998      2.00000
    131      -3.3998      2.00000
    132      -3.3997      2.00000
    133      -3.3876      2.00000
    134      -3.2988      2.00000
    135      -3.2988      2.00000
    136      -3.2288      2.00000
    137      -3.2288      2.00000
    138      -3.2244      2.00000
    139      -3.2143      2.00000
    140      -3.2059      2.00000
    141      -3.2059      2.00000
    142      -3.1997      2.00000
    143      -3.1997      2.00000
    144      -3.1813      2.00000
    145      -3.1719      2.00000
    146      -3.1719      2.00000
    147      -3.1677      2.00000
    148      -3.1461      2.00000
    149      -3.1235      2.00000
    150      -3.1162      2.00000
    151      -3.1014      2.00000
    152      -3.1014      2.00000
    153      -3.0942      2.00000
    154      -3.0942      2.00000
    155      -3.0556      2.00000
    156      -3.0556      2.00000
    157      -3.0544      2.00000
    158      -3.0445      2.00000
    159      -3.0333      2.00000
    160      -3.0194      2.00000
    161      -3.0194      2.00000
    162      -3.0023      2.00000
    163      -2.9994      2.00000
    164      -2.9965      2.00000
    165      -2.9965      2.00000
    166      -2.9873      2.00000
    167      -2.9662      2.00000
    168      -2.9662      2.00000
    169      -2.9613      2.00000
    170      -2.9390      2.00000
    171      -2.9390      2.00000
    172      -2.9086      2.00000
    173      -2.9086      2.00000
    174      -2.8390      2.00000
    175      -2.8390      2.00000
    176      -2.8336      2.00000
    177      -2.8135      2.00000
    178      -2.8135      2.00000
    179      -2.7979      2.00000
    180      -2.7223      2.00000
    181      -2.7223      2.00000
    182      -2.7181      2.00000
    183      -2.7076      2.00000
    184      -2.7076      2.00000
    185      -2.6560      2.00000
    186      -1.9967      2.00000
    187      -1.9967      2.00000
    188      -1.9462      2.00000
    189      -1.9462      2.00000
    190      -1.9212      2.00000
    191      -1.6913      2.00000
    192      -0.7557      2.00000
    193      -0.7557      2.00000
    194      -0.6261      2.00000
    195      -0.2580      2.00000
    196      -0.2265      2.00000
    197      -0.2265      2.00000
    198      -0.1340      2.00000
    199       0.1062      1.77946
    200       0.2368      0.00000
    201       0.2368      0.00000
    202       0.7658      0.00000
    203       1.1720      0.00000
    204       1.1720      0.00000
    205       1.9583      0.00000
    206       2.0375      0.00000
    207       2.0686      0.00000
    208       2.0686      0.00000
    209       2.4165      0.00000
    210       2.4165      0.00000
    211       3.1683      0.00000
    212       3.1683      0.00000
    213       3.3933      0.00000
    214       3.5027      0.00000
    215       3.6353      0.00000
    216       3.6353      0.00000
    217       3.9236      0.00000
    218       3.9236      0.00000
    219       4.2186      0.00000
    220       4.4302      0.00000
    221       4.4501      0.00000
    222       4.4501      0.00000
    223       4.4886      0.00000
    224       4.5086      0.00000
    225       4.5086      0.00000
    226       4.6269      0.00000
    227       4.6269      0.00000
    228       4.6671      0.00000
    229       4.9049      0.00000
    230       4.9538      0.00000
    231       4.9964      0.00000
    232       4.9965      0.00000
    233       5.6717      0.00000
    234       5.9081      0.00000
    235       5.9293      0.00000
    236       6.0284      0.00000
    237       6.0284      0.00000
    238       6.1968      0.00000
    239       6.2100      0.00000
    240       6.2100      0.00000
    241       6.4557      0.00000
    242       6.4557      0.00000
    243       6.4773      0.00000
    244       6.5785      0.00000
    245       6.6108      0.00000
    246       6.6119      0.00000
    247       6.6995      0.00000
    248       6.7335      0.00000
    249       6.7360      0.00000
    250       6.7721      0.00000
    251       6.7967      0.00000
    252       6.8126      0.00000

 k-point     2 :       0.1250    0.0000    0.0000
  band No.  band energies     occupation 
      1      -7.6478      2.00000
      2      -6.8862      2.00000
      3      -6.0403      2.00000
      4      -5.7702      2.00000
      5      -5.7576      2.00000
      6      -5.7210      2.00000
      7      -5.6966      2.00000
      8      -5.6944      2.00000
      9      -5.6868      2.00000
     10      -5.6718      2.00000
     11      -5.6713      2.00000
     12      -5.6529      2.00000
     13      -5.6470      2.00000
     14      -5.5933      2.00000
     15      -5.5879      2.00000
     16      -5.5784      2.00000
     17      -5.5722      2.00000
     18      -5.5574      2.00000
     19      -5.5315      2.00000
     20      -5.5309      2.00000
     21      -5.4223      2.00000
     22      -5.4190      2.00000
     23      -5.3733      2.00000
     24      -5.3581      2.00000
     25      -5.3535      2.00000
     26      -5.3500      2.00000
     27      -5.3064      2.00000
     28      -5.2962      2.00000
     29      -5.2575      2.00000
     30      -5.2500      2.00000
     31      -5.2332      2.00000
     32      -5.2182      2.00000
     33      -5.2163      2.00000
     34      -5.1668      2.00000
     35      -5.1510      2.00000
     36      -5.1500      2.00000
     37      -5.1381      2.00000
     38      -5.1271      2.00000
     39      -5.0320      2.00000
     40      -5.0022      2.00000
     41      -5.0008      2.00000
     42      -4.9717      2.00000
     43      -4.9627      2.00000
     44      -4.9526      2.00000
     45      -4.9265      2.00000
     46      -4.9125      2.00000
     47      -4.9125      2.00000
     48      -4.9070      2.00000
     49      -4.8474      2.00000
     50      -4.8347      2.00000
     51      -4.8041      2.00000
     52      -4.7248      2.00000
     53      -4.7237      2.00000
     54      -4.7052      2.00000
     55      -4.6943      2.00000
     56      -4.5558      2.00000
     57      -4.5407      2.00000
     58      -4.5401      2.00000
     59      -4.5270      2.00000
     60      -4.5086      2.00000
     61      -4.5086      2.00000
     62      -4.4979      2.00000
     63      -4.4935      2.00000
     64      -4.4766      2.00000
     65      -4.4688      2.00000
     66      -4.4307      2.00000
     67      -4.4086      2.00000
     68      -4.3782      2.00000
     69      -4.3766      2.00000
     70      -4.3692      2.00000
     71      -4.3667      2.00000
     72      -4.3331      2.00000
     73      -4.3308      2.00000
     74      -4.3279      2.00000
     75      -4.3232      2.00000
     76      -4.3014      2.00000
     77      -4.2993      2.00000
     78      -4.2820      2.00000
     79      -4.2775      2.00000
     80      -4.2685      2.00000
     81      -4.2427      2.00000
     82      -4.2389      2.00000
     83      -4.2277      2.00000
     84      -4.2229      2.00000
     85      -4.2063      2.00000
     86      -4.1989      2.00000
     87      -4.1965      2.00000
     88      -4.1746      2.00000
     89      -4.1580      2.00000
     90      -4.1467      2.00000
     91      -4.1042      2.00000
     92      -4.0994      2.00000
     93      -4.0646      2.00000
     94      -4.0461      2.00000
     95      -4.0137      2.00000
     96      -3.9937      2.00000
     97      -3.9411      2.00000
     98      -3.9100      2.00000
     99      -3.9098      2.00000
    100      -3.8701      2.00000
    101      -3.8538      2.00000
    102      -3.8332      2.00000
    103      -3.8298      2.00000
    104      -3.7988      2.00000
    105      -3.7852      2.00000
    106      -3.7835      2.00000
    107      -3.7727      2.00000
    108      -3.7449      2.00000
    109      -3.7142      2.00000
    110      -3.7123      2.00000
    111      -3.6873      2.00000
    112      -3.6752      2.00000
    113      -3.6364      2.00000
    114      -3.6282      2.00000
    115      -3.5974      2.00000
    116      -3.5909      2.00000
    117      -3.5829      2.00000
    118      -3.5656      2.00000
    119      -3.5564      2.00000
    120      -3.5379      2.00000
    121      -3.5331      2.00000
    122      -3.4953      2.00000
    123      -3.4942      2.00000
    124      -3.4809      2.00000
    125      -3.4748      2.00000
    126      -3.4738      2.00000
    127      -3.4614      2.00000
    128      -3.4397      2.00000
    129      -3.4257      2.00000
    130      -3.4174      2.00000
    131      -3.3982      2.00000
    132      -3.3835      2.00000
    133      -3.3802      2.00000
    134      -3.3603      2.00000
    135      -3.3456      2.00000
    136      -3.3331      2.00000
    137      -3.3032      2.00000
    138      -3.3031      2.00000
    139      -3.2830      2.00000
    140      -3.2576      2.00000
    141      -3.2422      2.00000
    142      -3.2207      2.00000
    143      -3.2074      2.00000
    144      -3.1970      2.00000
    145      -3.1832      2.00000
    146      -3.1760      2.00000
    147      -3.1650      2.00000
    148      -3.1474      2.00000
    149      -3.1376      2.00000
    150      -3.1333      2.00000
    151      -3.1303      2.00000
    152      -3.1116      2.00000
    153      -3.1042      2.00000
    154      -3.0915      2.00000
    155      -3.0885      2.00000
    156      -3.0868      2.00000
    157      -3.0772      2.00000
    158      -3.0733      2.00000
    159      -3.0588      2.00000
    160      -3.0549      2.00000
    161      -3.0327      2.00000
    162      -3.0263      2.00000
    163      -3.0090      2.00000
    164      -3.0022      2.00000
    165      -2.9719      2.00000
    166      -2.9694      2.00000
    167      -2.9585      2.00000
    168      -2.9425      2.00000
    169      -2.9348      2.00000
    170      -2.9180      2.00000
    171      -2.9033      2.00000
    172      -2.8789      2.00000
    173      -2.8673      2.00000
    174      -2.8647      2.00000
    175      -2.8450      2.00000
    176      -2.8377      2.00000
    177      -2.8253      2.00000
    178      -2.8118      2.00000
    179      -2.8100      2.00000
    180      -2.8013      2.00000
    181      -2.7705      2.00000
    182      -2.7342      2.00000
    183      -2.4759      2.00000
    184      -2.2664      2.00000
    185      -2.2536      2.00000
    186      -2.1796      2.00000
    187      -2.1035      2.00000
    188      -1.9662      2.00000
    189      -1.5662      2.00000
    190      -1.4395      2.00000
    191      -1.2336      2.00000
    192      -0.8981      2.00000
    193      -0.7935      2.00000
    194      -0.5989      2.00000
[...]
  0.000   0.000   0.000   0.000   0.000   0.000   0.000   0.000   0.000   0.000   0.000   0.000   0.000   0.000   0.000   0.000
  0.000   0.000   0.000   0.000   0.000   0.000   0.000   0.000   0.000   0.000   0.000   0.000   0.000   0.000   0.000   0.000
  0.000   0.000   0.000   0.000   0.000   0.000   0.000   0.000   0.000   0.000   0.000   0.000   0.000   0.000   0.000   0.000
  0.000   0.000   0.000   0.000   0.000   0.000   0.000   0.000   0.000   0.000   0.000   0.000   0.000   0.000   0.000   0.000
  0.000   0.000   0.000   0.000   0.000   0.000   0.000   0.000   0.000   0.000   0.000   0.000   0.000   0.000   0.000   0.000
  0.000   0.000   0.000   0.000   0.000   0.000   0.000   0.000   0.000   0.000   1.000   0.000   0.000   0.000   0.000   0.000
  0.000   0.000   0.000   0.000   0.000   0.000   0.000   0.000   0.000   0.000   0.000   0.000   0.000   0.000   0.000   0.000
  0.000   0.000   0.000   0.000   0.000   0.000   0.000   0.000   0.000   0.000   0.000   0.000   0.000   0.000   0.000   0.000
  0.000   0.000   0.000   0.000   0.000   0.000   0.000   0.000   0.000   0.000   0.000   0.000   0.000   0.000   0.000   0.000
  0.000   0.000   0.000   0.000   0.000   0.000   0.000   0.000   0.000   0.000   0.000   0.000   0.000   0.000   0.000   0.000
  0.000   0.000   0.000   0.000   0.000   0.000   0.000   0.000   0.000   0.000   0.000   0.000   0.000   0.000   0.000   0.000
  0.000   0.000   0.000   0.000   0.000   0.000   0.000   0.000   0.000   0.000   0.000   0.000   0.000   0.000   0.000   0.000
  0.000   0.000   0.000   0.000   0.000   0.000   0.000   0.000   0.000   0.000   0.000   0.000   0.000   0.000   0.000   0.000


------------------------ aborting loop because EDIFF is reached ----------------------------------------





 total charge

# of ion       s       p       d       tot
------------------------------------------
    1        0.417   0.203   9.177   9.797
    2        0.415   0.203   9.177   9.795
    3        0.415   0.203   9.177   9.795
    4        0.415   0.203   9.177   9.795
    5        0.421   0.200   9.176   9.797
    6        0.415   0.203   9.177   9.795
    7        0.415   0.203   9.177   9.795
    8        0.415   0.203   9.177   9.795
    9        0.415   0.203   9.177   9.796
   10        0.405   0.271   9.163   9.839
   11        0.407   0.268   9.166   9.841
   12        0.405   0.271   9.163   9.839
   13        0.407   0.268   9.166   9.841
   14        0.407   0.268   9.166   9.841
   15        0.404   0.270   9.163   9.837
   16        0.405   0.271   9.163   9.839
   17        0.404   0.270   9.163   9.837
   18        0.404   0.270   9.163   9.837
   19        0.400   0.268   9.165   9.833
   20        0.425   0.289   9.148   9.862
   21        0.425   0.289   9.148   9.862
   22        0.396   0.273   9.165   9.834
   23        0.425   0.289   9.148   9.862
   24        0.396   0.273   9.165   9.834
   25        0.400   0.268   9.165   9.833
   26        0.400   0.268   9.165   9.833
   27        0.396   0.273   9.165   9.834
   28        0.413   0.197   9.180   9.790
   29        0.425   0.207   9.166   9.798
   30        0.425   0.207   9.166   9.798
   31        0.425   0.207   9.166   9.798
   32        0.425   0.207   9.166   9.798
   33        0.425   0.207   9.166   9.798
   34        0.425   0.207   9.166   9.798
   35        0.414   0.196   9.180   9.789
   36        0.488   0.573   2.771   3.832
   37        0.998   1.195   0.000   2.193
--------------------------------------------------
tot         15.922  10.145 323.626 349.693
 
    CHARGE:  cpu time    0.3893: real time    0.3894
    FORLOC:  cpu time    0.0111: real time    0.0111
    FORNL :  cpu time    1.6349: real time    1.6351
    STRESS:  cpu time    4.8851: real time    4.8854
    FORCOR:  cpu time    0.0574: real time    0.0575
    FORHAR:  cpu time    0.0183: real time    0.0184
    OFIELD:  cpu time    0.0003: real time    0.0003

  FORCE on cell =-STRESS in cart. coord.  units (eV):
  Direction    XX          YY          ZZ          XY          YZ          ZX
  --------------------------------------------------------------------------------------
  Alpha Z   678.45256   678.45256   678.45256
  Ewald  150235.98046150235.98035************    -0.00001    -0.00001     0.00001
  Hartree159972.98799159972.98794************    -0.00001    -0.00000    -0.00000
  E(xc)   -2057.09970 -2057.09970 -2065.81380    -0.00000     0.00000     0.00000
  Local  ************************321417.57936     0.00032    -0.00003    -0.00009
  n-local  -325.14319  -309.77178  -327.99289     9.67535    -0.38703     0.51000
  augment  3223.75427  3223.75446  3238.49435    -0.00016     0.00000     0.00001
  Kinetic  4841.98358  4843.53856  4876.41368     3.95307     0.61278    -0.22196
  Fock        0.00000     0.00000     0.00000     0.00000     0.00000     0.00000
  -------------------------------------------------------------------------------------
  Total      -7.78440    -7.78440    -1.01319    -0.00000    -0.00000     0.00000
  in kB      -7.64856    -7.64856    -0.99551    -0.00000    -0.00000     0.00000
  external pressure =       -5.43 kB  Pullay stress =        0.00 kB


 VOLUME and BASIS-vectors are now :
 -----------------------------------------------------------------------------
  energy-cutoff  :      500.00
  volume of cell :     1630.63
      direct lattice vectors                 reciprocal lattice vectors
     8.791366577  0.000000000  0.000000000     0.113747958 -0.065672414  0.000000000
     4.395683289  7.613546790  0.000000000     0.000000000  0.131344829  0.000000000
     0.000000000  0.000000000 24.361965240     0.000000000  0.000000000  0.041047592

  length of vectors
     8.791366577  8.791366577 24.361965240     0.131344829  0.131344829  0.041047592


 FORCES acting on ions
    electron-ion (+dipol)            ewald-force                    non-local-force                 convergence-correction
 -----------------------------------------------------------------------------------------------
   0.464E-04 -.280E-04 0.265E+04   -.953E-04 0.593E-04 -.265E+04   0.197E-17 -.164E-17 -.194E+01   -.834E-04 -.155E-03 -.849E-02
   -.438E+00 -.468E+00 0.265E+04   0.239E+00 0.242E+00 -.265E+04   0.841E-01 0.143E+00 -.169E+01   0.105E+00 0.693E-01 0.249E-01
   0.438E+00 -.468E+00 0.265E+04   -.239E+00 0.242E+00 -.265E+04   -.841E-01 0.143E+00 -.169E+01   -.106E+00 0.712E-01 0.255E-01
   -.624E+00 -.146E+00 0.265E+04   0.329E+00 0.859E-01 -.265E+04   0.166E+00 0.156E-02 -.169E+01   0.113E+00 0.567E-01 0.249E-01
   -.709E-05 -.196E-04 0.265E+04   0.981E-04 -.200E-05 -.265E+04   -.104E-17 -.312E-18 -.137E+01   0.618E-02 0.378E-02 0.582E-01
   0.624E+00 -.145E+00 0.265E+04   -.329E+00 0.858E-01 -.265E+04   -.166E+00 0.156E-02 -.169E+01   -.114E+00 0.576E-01 0.256E-01
   -.186E+00 0.613E+00 0.265E+04   0.900E-01 -.328E+00 -.265E+04   0.815E-01 -.144E+00 -.169E+01   0.917E-02 -.127E+00 0.255E-01
   0.186E+00 0.613E+00 0.265E+04   -.901E-01 -.328E+00 -.265E+04   -.815E-01 -.144E+00 -.169E+01   -.757E-02 -.128E+00 0.256E-01
   0.364E-04 -.131E-04 0.265E+04   0.791E-04 -.642E-04 -.265E+04   0.232E-17 0.438E-18 -.183E+01   -.663E-02 -.341E-02 0.594E-01
   -.197E+01 -.114E+01 0.864E+03   0.202E+01 0.117E+01 -.863E+03   -.145E+00 -.835E-01 -.639E+00   0.710E-01 0.410E-01 -.102E+00
   -.282E-04 -.202E+01 0.859E+03   0.406E-04 0.202E+01 -.858E+03   -.470E-13 -.716E-02 -.512E+00   0.612E-02 -.412E-02 -.180E+00
   0.197E+01 -.114E+01 0.864E+03   -.202E+01 0.117E+01 -.863E+03   0.145E+00 -.835E-01 -.639E+00   -.724E-01 0.417E-01 -.103E+00
   -.175E+01 0.101E+01 0.859E+03   0.175E+01 -.101E+01 -.858E+03   -.620E-02 0.358E-02 -.512E+00   -.628E-03 0.738E-02 -.180E+00
   0.175E+01 0.101E+01 0.859E+03   -.175E+01 -.101E+01 -.858E+03   0.620E-02 0.358E-02 -.512E+00   0.108E-01 0.650E-02 -.182E+00
   0.154E-04 -.649E-01 0.864E+03   -.107E-03 -.299E-01 -.863E+03   0.311E-12 0.473E-01 -.763E+00   -.132E-02 0.424E-01 -.127E+00
   -.803E-05 0.228E+01 0.864E+03   0.207E-04 -.234E+01 -.863E+03   0.110E-11 0.167E+00 -.639E+00   -.142E-03 -.836E-01 -.103E+00
   -.562E-01 0.324E-01 0.864E+03   -.260E-01 0.149E-01 -.863E+03   0.410E-01 -.237E-01 -.763E+00   0.360E-01 -.223E-01 -.127E+00
   0.561E-01 0.324E-01 0.864E+03   0.259E-01 0.150E-01 -.863E+03   -.410E-01 -.237E-01 -.763E+00   -.360E-01 -.208E-01 -.126E+00
   0.382E-04 -.587E+01 -.927E+03   -.125E-03 0.578E+01 0.927E+03   0.637E-12 0.970E-01 0.895E+00   0.565E-02 0.432E-01 -.377E+00
   -.334E+02 -.193E+02 -.964E+03   0.339E+02 0.196E+02 0.965E+03   -.518E+00 -.299E+00 -.464E+00   -.754E-01 -.435E-01 -.479E+00
   0.334E+02 -.193E+02 -.964E+03   -.339E+02 0.196E+02 0.965E+03   0.518E+00 -.299E+00 -.464E+00   0.736E-01 -.440E-01 -.479E+00
   -.149E+02 0.862E+01 -.931E+03   0.149E+02 -.859E+01 0.931E+03   0.108E+00 -.624E-01 0.438E+00   -.207E-01 0.176E-01 -.383E+00
   -.507E-04 0.386E+02 -.964E+03   0.353E-04 -.391E+02 0.965E+03   0.393E-11 0.598E+00 -.464E+00   -.987E-03 0.864E-01 -.479E+00
   0.149E+02 0.862E+01 -.931E+03   -.149E+02 -.859E+01 0.931E+03   -.108E+00 -.624E-01 0.438E+00   0.315E-01 0.183E-01 -.383E+00
   0.509E+01 0.294E+01 -.927E+03   -.500E+01 -.289E+01 0.927E+03   -.840E-01 -.485E-01 0.895E+00   -.306E-01 -.178E-01 -.378E+00
   -.509E+01 0.294E+01 -.927E+03   0.500E+01 -.289E+01 0.927E+03   0.840E-01 -.485E-01 0.895E+00   0.399E-01 -.168E-01 -.377E+00
   0.192E-04 -.172E+02 -.931E+03   0.110E-03 0.172E+02 0.931E+03   0.819E-12 0.125E+00 0.438E+00   0.424E-02 -.268E-01 -.383E+00
   0.537E-04 -.364E-04 -.264E+04   -.114E-03 0.767E-04 0.264E+04   0.117E-17 0.282E-17 0.201E+01   0.234E-03 0.578E-06 -.263E+00
   -.184E+02 -.379E+02 -.264E+04   0.190E+02 0.390E+02 0.264E+04   -.527E+00 -.858E+00 0.206E+01   -.661E-01 -.232E+00 -.411E+00
   0.184E+02 -.379E+02 -.264E+04   -.190E+02 0.390E+02 0.264E+04   0.527E+00 -.858E+00 0.206E+01   0.652E-01 -.231E+00 -.411E+00
   -.420E+02 0.298E+01 -.264E+04   0.432E+02 -.304E+01 0.264E+04   -.101E+01 -.270E-01 0.206E+01   -.234E+00 0.590E-01 -.411E+00
   0.420E+02 0.298E+01 -.264E+04   -.432E+02 -.304E+01 0.264E+04   0.101E+01 -.270E-01 0.206E+01   0.234E+00 0.599E-01 -.410E+00
   -.236E+02 0.349E+02 -.264E+04   0.242E+02 -.359E+02 0.264E+04   -.480E+00 0.885E+00 0.206E+01   -.167E+00 0.173E+00 -.411E+00
   0.236E+02 0.349E+02 -.264E+04   -.242E+02 -.359E+02 0.264E+04   0.480E+00 0.885E+00 0.206E+01   0.169E+00 0.173E+00 -.410E+00
   0.260E-04 -.135E-04 -.265E+04   0.103E-03 -.652E-04 0.265E+04   -.181E-17 -.243E-17 0.203E+01   -.635E-02 -.324E-02 -.279E+00
   -.140E-04 0.143E-05 -.879E+03   0.380E-04 0.429E-05 0.878E+03   0.600E-18 -.229E-18 0.809E+00   0.280E-03 0.174E-03 -.318E+00
   0.448E-04 -.250E-04 -.111E+04   0.173E-04 0.229E-06 0.112E+04   0.467E-18 -.103E-17 -.277E+01   0.545E-03 0.335E-03 -.145E+00
 -----------------------------------------------------------------------------------------------
   0.362E-03 -.721E-03 0.121E+02   -.673E-13 0.204E-12 -.409E-11   0.166E-15 0.218E-15 -.399E+01   0.348E-01 0.233E-01 -.816E+01
 
 
 POSITION                                       TOTAL-FORCE (eV/Angst)
 -----------------------------------------------------------------------------------
      0.00000      0.00000      5.28219        -0.000000      0.000000     -0.000281
      2.93046      0.00000      5.28219        -0.009002     -0.012664      0.018270
      5.86091      0.00000      5.28219         0.009002     -0.012664      0.018270
      1.46523      2.53785      5.28219        -0.015469     -0.001464      0.018270
      4.39568      2.53785      5.28219         0.000000      0.000000     -0.008469
      7.32614      2.53785      5.28219         0.015469     -0.001464      0.018270
      2.93046      5.07570      5.28219        -0.006467      0.014128      0.018270
      5.86091      5.07570      5.28219         0.006467      0.014128      0.018270
      8.79137      5.07570      5.28219        -0.000000      0.000000      0.014983
      1.46523      0.84595      7.67490        -0.020746     -0.011978     -0.033514
      4.39568      0.84595      7.67490        -0.000000     -0.009511     -0.067398
      7.32614      0.84595      7.67490         0.020746     -0.011978     -0.033514
      2.93046      3.38380      7.67490        -0.008236      0.004755     -0.067398
      5.86091      3.38380      7.67490         0.008236      0.004755     -0.067398
      8.79137      3.38380      7.67490        -0.000000     -0.005345     -0.003299
      4.39568      5.92165      7.67490         0.000000      0.023955     -0.033514
      7.32614      5.92165      7.67490        -0.004629      0.002673     -0.003299
     10.25659      5.92165      7.67490         0.004629      0.002673     -0.003299
      8.79137      1.69074     10.05145         0.000000      0.039538      0.104950
      2.93556      1.69484     10.04095        -0.123846     -0.071502     -0.097007
      5.85581      1.69484     10.04095         0.123846     -0.071502     -0.097007
     10.25435      4.23104     10.05745         0.018471     -0.010664      0.065604
      4.39568      4.22386     10.04095         0.000000      0.143005     -0.097007
      7.32838      4.23104     10.05745        -0.018471     -0.010664      0.065604
     11.72283      6.76818     10.05145        -0.034241     -0.019769      0.104950
      5.85990      6.76818     10.05145         0.034241     -0.019769      0.104950
      8.79137      6.76501     10.05745         0.000000      0.021328      0.065604
      0.00000      0.00000     12.43413        -0.000000      0.000000     -0.057335
      2.95009      0.02948     12.45917        -0.031828     -0.009390      0.085789
      5.84128      0.02948     12.45917         0.031828     -0.009390      0.085789
      1.50057      2.54011     12.45917        -0.024046     -0.022869      0.085789
      7.29079      2.54011     12.45917         0.024046     -0.022869      0.085789
      2.94617      5.04396     12.45917         0.007782      0.032259      0.085789
      5.84520      5.04396     12.45917        -0.007782      0.032259      0.085789
      8.79137      5.07570     12.45428        -0.000000      0.000000     -0.084719
      4.39568      2.53785     12.30230        -0.000000      0.000000     -0.353189
      4.39568      2.53785     14.09277        -0.000000      0.000000     -0.043355
 -----------------------------------------------------------------------------------
    total drift:                                0.035160      0.022577     -0.052817


--------------------------------------------------------------------------------------------------------



  FREE ENERGIE OF THE ION-ELECTRON SYSTEM (eV)
  ---------------------------------------------------
  free  energy   TOTEN  =      -101.32338036 eV

  energy  without entropy=     -101.32338036  energy(sigma->0) =     -101.32338036
 


--------------------------------------------------------------------------------------------------------


    POTLOK:  cpu time    0.0487: real time    0.0487


--------------------------------------------------------------------------------------------------------


 stress matrix after NEB project (eV)
     -7.78440     -0.00000      0.00000
     -0.00000     -7.78440     -0.00000
      0.00000     -0.00000     -1.01319
  FORCES: max atom, RMS     0.043355    0.007128
  FORCE total and by dimension    0.043355    0.043355
  Stress total and by dimension   11.055328    7.784398
     LOOP+:  cpu time   75.9319: real time   75.9441
 -----------------------------------------------------------------------------
|                                                                             |
|           W    W    AA    RRRRR   N    N  II  N    N   GGGG   !!!           |
|           W    W   A  A   R    R  NN   N  II  NN   N  G    G  !!!           |
|           W    W  A    A  R    R  N N  N  II  N N  N  G       !!!           |
|           W WW W  AAAAAA  RRRRR   N  N N  II  N  N N  G  GGG   !            |
|           WW  WW  A    A  R   R   N   NN  II  N   NN  G    G                |
|           W    W  A    A  R    R  N    N  II  N    N   GGGG   !!!           |
|                                                                             |
|     Tetrahedron method does not include variations of the Fermi             |
|     occupations, so forces and stress will be inaccurate. We suggest        |
|     using a different smearing scheme ISMEAR = 1 or 2 for metals in         |
|     relaxations.                                                            |
|                                                                             |
 -----------------------------------------------------------------------------

    4ORBIT:  cpu time    0.0000: real time    0.0000



 total charge

# of ion       s       p       d       tot
------------------------------------------
    1        0.417   0.203   9.177   9.797
    2        0.415   0.203   9.177   9.795
    3        0.415   0.203   9.177   9.795
    4        0.415   0.203   9.177   9.795
    5        0.421   0.200   9.176   9.797
    6        0.415   0.203   9.177   9.795
    7        0.415   0.203   9.177   9.795
    8        0.415   0.203   9.177   9.795
    9        0.415   0.203   9.177   9.796
   10        0.405   0.271   9.163   9.839
   11        0.407   0.268   9.166   9.841
   12        0.405   0.271   9.163   9.839
   13        0.407   0.268   9.166   9.841
   14        0.407   0.268   9.166   9.841
   15        0.404   0.270   9.163   9.837
   16        0.405   0.271   9.163   9.839
   17        0.404   0.270   9.163   9.837
   18        0.404   0.270   9.163   9.837
   19        0.400   0.268   9.165   9.833
   20        0.425   0.289   9.148   9.862
   21        0.425   0.289   9.148   9.862
   22        0.396   0.273   9.165   9.834
   23        0.425   0.289   9.148   9.862
   24        0.396   0.273   9.165   9.834
   25        0.400   0.268   9.165   9.833
   26        0.400   0.268   9.165   9.833
   27        0.396   0.273   9.165   9.834
   28        0.413   0.197   9.180   9.790
   29        0.425   0.207   9.166   9.798
   30        0.425   0.207   9.166   9.798
   31        0.425   0.207   9.166   9.798
   32        0.425   0.207   9.166   9.798
   33        0.425   0.207   9.166   9.798
   34        0.425   0.207   9.166   9.798
   35        0.414   0.196   9.180   9.789
   36        0.488   0.573   2.771   3.832
   37        0.998   1.195   0.000   2.193
--------------------------------------------------
tot         15.922  10.145 323.626 349.693
 
 BZINTS: Fermi energy:    0.190174;  393.000000 electrons
         Band energy:-0.154494E+04;  BLOECHL correction:   -0.043894

 total amount of memory used by VASP MPI-rank0   131478. kBytes
=======================================================================

   base      :      30000. kBytes
   nonlr-proj:      15557. kBytes
   fftplans  :       4808. kBytes
   grid      :      19857. kBytes
   one-center:        575. kBytes
   wavefun   :      60681. kBytes
 
  
  
 General timing and accounting informations for this job:
 ========================================================
  
                  Total CPU time used (sec):       83.820
                            User time (sec):       80.683
                          System time (sec):        3.137
                         Elapsed time (sec):       84.358
  
                   Maximum memory used (kb):      398568.
                   Average memory used (kb):          N/A
  
                          Minor page faults:        71831
                          Major page faults:            0
                 Voluntary context switches:        11986
