PROCAR new format
# of k-points:   10         # of bands:  252         # of ions:   37

 k-point     1 :    0.00000000 0.00000000 0.00000000     weight = 0.01562500

band     1 # energy   -7.65150503 # occ.  2.00000000
 
ion      s      p      d    tot
    1  0.000  0.000  0.000  0.000
    2  0.000  0.000  0.000  0.000
    3  0.000  0.000  0.000  0.000
    4  0.000  0.000  0.000  0.000
    5  0.000  0.000  0.000  0.000
    6  0.000  0.000  0.000  0.000
    7  0.000  0.000  0.000  0.000
    8  0.000  0.000  0.000  0.000
    9  0.000  0.000  0.000  0.000
   10  0.000  0.000  0.000  0.000
   11  0.000  0.000  0.000  0.000
   12  0.000  0.000  0.000  0.000
   13  0.000  0.000  0.000  0.000
   14  0.000  0.000  0.000  0.000
   15  0.000  0.000  0.000  0.000
   16  0.000  0.000  0.000  0.000
   17  0.000  0.000  0.000  0.000
   18  0.000  0.000  0.000  0.000
   19  0.001  0.000  0.000  0.001
   20  0.003  0.000  0.002  0.005
   21  0.003  0.000  0.002  0.005
   22  0.001  0.000  0.000  0.001
   23  0.003  0.000  0.002  0.005
   24  0.001  0.000  0.000  0.001
   25  0.001  0.000  0.000  0.001
   26  0.001  0.000  0.000  0.001
   27  0.001  0.000  0.000  0.001
   28  0.001  0.000  0.000  0.001
   29  0.003  0.000  0.002  0.005
   30  0.003  0.000  0.002  0.005
   31  0.003  0.000  0.002  0.005
   32  0.003  0.000  0.002  0.005
   33  0.003  0.000  0.002  0.005
   34  0.003  0.000  0.002  0.005
   35  0.001  0.000  0.000  0.001
   36  0.109  0.057  0.097  0.262
   37  0.423  0.006  0.000  0.429
tot    0.567  0.067  0.112  0.746
 
band     2 # energy   -6.92955121 # occ.  2.00000000
 
ion      s      p      d    tot
    1  0.007  0.001  0.000  0.007
    2  0.007  0.001  0.000  0.007
    3  0.007  0.001  0.000  0.007
    4  0.007  0.001  0.000  0.007
    5  0.007  0.001  0.000  0.007
    6  0.007  0.001  0.000  0.007
    7  0.007  0.001  0.000  0.007
    8  0.007  0.001  0.000  0.007
    9  0.007  0.001  0.000  0.007
   10  0.024  0.000  0.000  0.025
   11  0.025  0.000  0.000  0.026
   12  0.024  0.000  0.000  0.025
   13  0.025  0.000  0.000  0.026
   14  0.025  0.000  0.000  0.026
   15  0.024  0.000  0.000  0.025
   16  0.024  0.000  0.000  0.025
   17  0.024  0.000  0.000  0.025
   18  0.024  0.000  0.000  0.025
   19  0.021  0.000  0.000  0.022
   20  0.021  0.000  0.001  0.021
   21  0.021  0.000  0.001  0.021
   22  0.021  0.000  0.000  0.022
   23  0.021  0.000  0.001  0.021
   24  0.021  0.000  0.000  0.022
   25  0.021  0.000  0.000  0.022
   26  0.021  0.000  0.000  0.022
   27  0.021  0.000  0.000  0.022
   28  0.004  0.001  0.000  0.005
   29  0.003  0.001  0.000  0.004
   30  0.003  0.001  0.000  0.004
   31  0.003  0.001  0.000  0.004
   32  0.003  0.001  0.000  0.004
   33  0.003  0.001  0.000  0.004
   34  0.003  0.001  0.000  0.004
   35  0.004  0.001  0.000  0.005
   36  0.000  0.007  0.005  0.012
   37  0.021  0.000  0.000  0.021
tot    0.518  0.021  0.014  0.553
 
band     3 # energy   -6.07874002 # occ.  2.00000000
 
ion      s      p      d    tot
    1  0.007  0.000  0.000  0.007
    2  0.006  0.000  0.000  0.007
    3  0.006  0.000  0.000  0.007
    4  0.006  0.000  0.000  0.007
    5  0.006  0.000  0.000  0.007
    6  0.006  0.000  0.000  0.007
    7  0.006  0.000  0.000  0.007
    8  0.006  0.000  0.000  0.007
    9  0.006  0.000  0.000  0.007
   10  0.011  0.001  0.016  0.028
   11  0.009  0.001  0.018  0.028
   12  0.011  0.001  0.016  0.028
   13  0.009  0.001  0.018  0.028
   14  0.009  0.001  0.018  0.028
   15  0.009  0.001  0.015  0.025
   16  0.011  0.001  0.016  0.028
   17  0.009  0.001  0.015  0.025
   18  0.009  0.001  0.015  0.025
   19  0.013  0.001  0.020  0.034
   20  0.012  0.001  0.028  0.040
   21  0.012  0.001  0.028  0.040
   22  0.014  0.001  0.018  0.034
   23  0.012  0.001  0.028  0.040
   24  0.014  0.001  0.018  0.034
   25  0.013  0.001  0.020  0.034
   26  0.013  0.001  0.020  0.034
   27  0.014  0.001  0.018  0.034
   28  0.006  0.000  0.000  0.006
   29  0.004  0.000  0.000  0.005
   30  0.004  0.000  0.000  0.005
   31  0.004  0.000  0.000  0.005
   32  0.004  0.000  0.000  0.005
   33  0.004  0.000  0.000  0.005
   34  0.004  0.000  0.000  0.005
   35  0.006  0.000  0.000  0.006
   36  0.001  0.002  0.001  0.004
   37  0.005  0.000  0.000  0.005
tot    0.307  0.024  0.349  0.680
 
band     4 # energy   -5.80264007 # occ.  2.00000000
 
ion      s      p      d    tot
    1  0.019  0.000  0.026  0.045
    2  0.017  0.000  0.026  0.043
    3  0.017  0.000  0.026  0.043
    4  0.017  0.000  0.026  0.043
    5  0.016  0.000  0.027  0.043
    6  0.017  0.000  0.026  0.043
    7  0.017  0.000  0.026  0.043
    8  0.017  0.000  0.026  0.043
    9  0.016  0.000  0.025  0.041
   10  0.000  0.001  0.022  0.023
   11  0.001  0.001  0.020  0.021
   12  0.000  0.001  0.022  0.023
   13  0.001  0.001  0.020  0.021
   14  0.001  0.001  0.020  0.021
   15  0.001  0.001  0.018  0.019
   16  0.000  0.001  0.022  0.023
   17  0.001  0.001  0.018  0.019
   18  0.001  0.001  0.018  0.019
   19  0.000  0.000  0.006  0.006
   20  0.000  0.000  0.009  0.009
   21  0.000  0.000  0.009  0.009
   22  0.000  0.000  0.008  0.008
   23  0.000  0.000  0.009  0.009
   24  0.000  0.000  0.008  0.008
   25  0.000  0.000  0.006  0.006
   26  0.000  0.000  0.006  0.006
   27  0.000  0.000  0.008  0.008
   28  0.007  0.000  0.005  0.012
   29  0.005  0.000  0.006  0.012
   30  0.005  0.000  0.006  0.012
   31  0.005  0.000  0.006  0.012
   32  0.005  0.000  0.006  0.012
   33  0.005  0.000  0.006  0.012
   34  0.005  0.000  0.006  0.012
   35  0.008  0.000  0.007  0.015
   36  0.001  0.000  0.003  0.005
   37  0.002  0.000  0.000  0.002
tot    0.209  0.008  0.536  0.753
 
band     5 # energy   -5.70183842 # occ.  2.00000000
 
ion      s      p      d    tot
    1  0.001  0.000  0.003  0.004
    2  0.000  0.000  0.004  0.004
    3  0.000  0.000  0.004  0.004
    4  0.000  0.000  0.004  0.004
    5  0.001  0.000  0.000  0.001
    6  0.000  0.000  0.004  0.004
    7  0.000  0.000  0.004  0.004
    8  0.000  0.000  0.004  0.004
    9  0.001  0.000  0.001  0.002
   10  0.002  0.000  0.033  0.035
   11  0.002  0.001  0.021  0.023
   12  0.002  0.000  0.033  0.035
   13  0.002  0.001  0.021  0.023
   14  0.002  0.001  0.021  0.023
   15  0.007  0.001  0.021  0.029
   16  0.002  0.000  0.033  0.035
   17  0.007  0.001  0.021  0.029
   18  0.007  0.001  0.021  0.029
   19  0.002  0.001  0.029  0.032
   20  0.007  0.000  0.089  0.096
   21  0.007  0.000  0.089  0.096
   22  0.012  0.001  0.019  0.032
   23  0.007  0.000  0.089  0.096
   24  0.012  0.001  0.019  0.032
   25  0.002  0.001  0.029  0.032
   26  0.002  0.001  0.029  0.032
   27  0.012  0.001  0.019  0.032
   28  0.000  0.000  0.000  0.000
   29  0.000  0.000  0.005  0.005
   30  0.000  0.000  0.005  0.005
   31  0.000  0.000  0.005  0.005
   32  0.000  0.000  0.005  0.005
   33  0.000  0.000  0.005  0.005
   34  0.000  0.000  0.005  0.005
   35  0.002  0.001  0.003  0.006
   36  0.000  0.002  0.001  0.003
   37  0.001  0.000  0.000  0.001
tot    0.103  0.016  0.697  0.816
 
band     6 # energy   -5.69609775 # occ.  2.00000000
 
ion      s      p      d    tot
    1  0.000  0.000  0.007  0.007
    2  0.001  0.000  0.003  0.005
    3  0.000  0.000  0.003  0.003
    4  0.001  0.000  0.003  0.004
    5  0.000  0.000  0.003  0.003
    6  0.001  0.000  0.002  0.003
    7  0.000  0.000  0.003  0.003
    8  0.001  0.000  0.003  0.004
    9  0.000  0.000  0.003  0.003
   10  0.013  0.001  0.022  0.035
   11  0.000  0.001  0.031  0.032
   12  0.002  0.001  0.019  0.022
   13  0.000  0.001  0.032  0.032
   14  0.000  0.000  0.028  0.029
   15  0.003  0.000  0.030  0.034
   16  0.004  0.001  0.020  0.025
   17  0.002  0.000  0.036  0.038
   18  0.010  0.001  0.008  0.019
   19  0.008  0.001  0.031  0.040
   20  0.017  0.001  0.011  0.029
   21  0.003  0.000  0.115  0.118
   22  0.000  0.001  0.034  0.035
   23  0.006  0.000  0.092  0.098
   24  0.000  0.000  0.035  0.035
   25  0.023  0.001  0.030  0.054
   26  0.004  0.001  0.031  0.036
   27  0.000  0.001  0.034  0.035
   28  0.000  0.000  0.005  0.005
   29  0.000  0.000  0.002  0.002
   30  0.001  0.000  0.006  0.007
   31  0.000  0.000  0.002  0.003
   32  0.000  0.000  0.004  0.005
   33  0.001  0.001  0.006  0.007
   34  0.000  0.000  0.003  0.003
   35  0.000  0.000  0.000  0.000
   36  0.000  0.000  0.001  0.002
   37  0.000  0.000  0.000  0.000
tot    0.103  0.014  0.699  0.816
 
band     7 # energy   -5.69609598 # occ.  2.00000000
 
ion      s      p      d    tot
    1  0.000  0.000  0.007  0.008
    2  0.000  0.000  0.002  0.003
    3  0.001  0.000  0.003  0.004
    4  0.000  0.000  0.002  0.003
    5  0.000  0.000  0.003  0.003
    6  0.000  0.000  0.003  0.004
    7  0.001  0.000  0.003  0.004
    8  0.000  0.000  0.003  0.003
    9  0.000  0.000  0.003  0.003
   10  0.000  0.001  0.019  0.020
   11  0.000  0.000  0.030  0.030
   12  0.011  0.001  0.021  0.033
   13  0.000  0.000  0.029  0.030
   14  0.000  0.001  0.032  0.033
   15  0.007  0.000  0.020  0.027
   16  0.009  0.001  0.021  0.030
   17  0.008  0.001  0.014  0.022
   18  0.000  0.000  0.041  0.041
   19  0.015  0.001  0.031  0.047
   20  0.000  0.000  0.134  0.135
   21  0.014  0.001  0.030  0.045
   22  0.000  0.000  0.034  0.035
   23  0.011  0.000  0.053  0.065
   24  0.000  0.001  0.034  0.035
   25  0.000  0.001  0.031  0.033
   26  0.020  0.001  0.030  0.051
   27  0.000  0.001  0.034  0.035
   28  0.000  0.000  0.005  0.005
   29  0.001  0.000  0.006  0.007
   30  0.000  0.000  0.002  0.002
   31  0.001  0.000  0.005  0.006
   32  0.001  0.000  0.004  0.005
   33  0.000  0.000  0.002  0.002
   34  0.001  0.000  0.005  0.006
   35  0.000  0.000  0.000  0.000
   36  0.000  0.000  0.001  0.002
   37  0.000  0.000  0.000  0.000
tot    0.103  0.014  0.698  0.816
 
band     8 # energy   -5.69413947 # occ.  2.00000000
 
ion      s      p      d    tot
    1  0.000  0.000  0.003  0.003
    2  0.000  0.000  0.002  0.003
    3  0.002  0.001  0.007  0.009
    4  0.000  0.000  0.003  0.003
    5  0.000  0.000  0.010  0.011
    6  0.002  0.001  0.006  0.008
    7  0.001  0.000  0.006  0.007
    8  0.001  0.001  0.004  0.006
    9  0.000  0.000  0.002  0.002
   10  0.005  0.001  0.017  0.023
   11  0.014  0.001  0.056  0.070
   12  0.001  0.000  0.075  0.076
   13  0.004  0.001  0.079  0.083
   14  0.031  0.001  0.014  0.046
   15  0.004  0.001  0.019  0.024
   16  0.002  0.000  0.055  0.057
   17  0.001  0.002  0.009  0.012
   18  0.009  0.000  0.037  0.046
   19  0.000  0.000  0.024  0.024
   20  0.013  0.001  0.032  0.046
   21  0.001  0.001  0.025  0.028
   22  0.002  0.000  0.041  0.043
   23  0.005  0.001  0.028  0.034
   24  0.016  0.001  0.007  0.024
   25  0.000  0.000  0.016  0.017
   26  0.000  0.000  0.028  0.028
   27  0.007  0.001  0.029  0.037
   28  0.000  0.000  0.000  0.000
   29  0.002  0.000  0.003  0.005
   30  0.000  0.000  0.002  0.003
   31  0.002  0.000  0.004  0.006
   32  0.000  0.000  0.002  0.002
   33  0.001  0.000  0.003  0.004
   34  0.001  0.000  0.002  0.003
   35  0.000  0.000  0.007  0.007
   36  0.000  0.000  0.001  0.001
   37  0.000  0.000  0.000  0.000
tot    0.127  0.017  0.658  0.802
 
band     9 # energy   -5.69413878 # occ.  2.00000000
 
ion      s      p      d    tot
    1  0.000  0.000  0.003  0.003
    2  0.002  0.001  0.007  0.009
    3  0.000  0.000  0.003  0.003
    4  0.002  0.001  0.006  0.009
    5  0.000  0.000  0.010  0.011
    6  0.000  0.000  0.004  0.004
    7  0.001  0.000  0.003  0.005
    8  0.001  0.000  0.005  0.006
    9  0.000  0.000  0.002  0.002
   10  0.000  0.000  0.081  0.081
   11  0.019  0.001  0.043  0.063
   12  0.005  0.001  0.023  0.029
   13  0.029  0.001  0.020  0.050
   14  0.001  0.001  0.085  0.087
   15  0.006  0.001  0.024  0.031
   16  0.003  0.000  0.043  0.047
   17  0.009  0.000  0.034  0.043
   18  0.000  0.002  0.007  0.009
   19  0.000  0.000  0.021  0.022
   20  0.000  0.001  0.024  0.026
   21  0.011  0.001  0.032  0.044
   22  0.014  0.001  0.011  0.026
   23  0.007  0.001  0.029  0.037
   24  0.001  0.000  0.044  0.045
   25  0.000  0.000  0.029  0.029
   26  0.000  0.000  0.017  0.018
   27  0.010  0.001  0.023  0.033
   28  0.000  0.000  0.000  0.000
   29  0.000  0.000  0.002  0.002
   30  0.001  0.000  0.003  0.005
   31  0.000  0.000  0.002  0.002
   32  0.001  0.000  0.004  0.006
   33  0.001  0.000  0.002  0.004
   34  0.001  0.000  0.004  0.005
   35  0.000  0.000  0.007  0.007
   36  0.000  0.000  0.001  0.001
   37  0.000  0.000  0.000  0.000
tot    0.126  0.017  0.659  0.802
 
band    10 # energy   -5.69175978 # occ.  2.00000000
 
ion      s      p      d    tot
    1  0.001  0.001  0.002  0.004
    2  0.000  0.000  0.006  0.006
    3  0.000  0.000  0.006  0.006
    4  0.000  0.000  0.006  0.006
    5  0.005  0.001  0.004  0.009
    6  0.000  0.000  0.006  0.006
    7  0.000  0.000  0.006  0.006
    8  0.000  0.000  0.006  0.006
    9  0.000  0.000  0.003  0.004
   10  0.011  0.001  0.005  0.017
   11  0.011  0.000  0.057  0.069
   12  0.011  0.001  0.005  0.017
   13  0.011  0.000  0.057  0.069
   14  0.011  0.000  0.057  0.069
   15  0.000  0.000  0.044  0.044
   16  0.011  0.001  0.005  0.017
   17  0.000  0.000  0.044  0.044
   18  0.000  0.000  0.044  0.044
   19  0.012  0.001  0.024  0.037
   20  0.003  0.001  0.020  0.025
   21  0.003  0.001  0.020  0.025
   22  0.001  0.000  0.045  0.046
   23  0.003  0.001  0.020  0.025
   24  0.001  0.000  0.045  0.046
   25  0.012  0.001  0.024  0.037
   26  0.012  0.001  0.024  0.037
   27  0.001  0.000  0.045  0.046
   28  0.002  0.001  0.004  0.007
   29  0.000  0.000  0.004  0.004
   30  0.000  0.000  0.004  0.004
   31  0.000  0.000  0.004  0.004
   32  0.000  0.000  0.004  0.004
   33  0.000  0.000  0.004  0.004
   34  0.000  0.000  0.004  0.004
   35  0.002  0.000  0.002  0.005
   36  0.000  0.000  0.000  0.000
   37  0.000  0.000  0.000  0.000
tot    0.127  0.017  0.656  0.800
 
band    11 # energy   -5.67105014 # occ.  2.00000000
 
ion      s      p      d    tot
    1  0.000  0.000  0.018  0.019
    2  0.000  0.000  0.009  0.009
    3  0.000  0.000  0.009  0.009
    4  0.000  0.000  0.009  0.009
    5  0.001  0.000  0.001  0.002
    6  0.000  0.000  0.009  0.009
    7  0.000  0.000  0.009  0.009
    8  0.000  0.000  0.009  0.009
    9  0.009  0.001  0.001  0.011
   10  0.003  0.000  0.071  0.074
   11  0.003  0.000  0.039  0.042
   12  0.003  0.000  0.071  0.074
   13  0.003  0.000  0.039  0.042
   14  0.003  0.000  0.039  0.042
   15  0.008  0.000  0.009  0.017
   16  0.003  0.000  0.071  0.074
   17  0.008  0.000  0.009  0.017
   18  0.008  0.000  0.009  0.017
   19  0.002  0.000  0.013  0.015
   20  0.002  0.000  0.033  0.036
   21  0.002  0.000  0.033  0.036
   22  0.001  0.000  0.030  0.031
   23  0.002  0.000  0.033  0.036
   24  0.001  0.000  0.030  0.031
   25  0.002  0.000  0.013  0.015
   26  0.002  0.000  0.013  0.015
   27  0.001  0.000  0.030  0.031
   28  0.010  0.001  0.001  0.012
   29  0.001  0.000  0.011  0.012
   30  0.001  0.000  0.011  0.012
   31  0.001  0.000  0.011  0.012
   32  0.001  0.000  0.011  0.012
   33  0.001  0.000  0.011  0.012
   34  0.001  0.000  0.011  0.012
   35  0.000  0.000  0.010  0.011
   36  0.001  0.000  0.000  0.002
   37  0.000  0.000  0.000  0.000
tot    0.084  0.009  0.738  0.832
 
band    12 # energy   -5.65338020 # occ.  2.00000000
 
ion      s      p      d    tot
    1  0.000  0.000  0.014  0.015
    2  0.002  0.000  0.006  0.008
    3  0.000  0.000  0.011  0.011
    4  0.002  0.000  0.006  0.008
    5  0.000  0.000  0.008  0.008
    6  0.003  0.001  0.007  0.010
    7  0.000  0.000  0.011  0.011
    8  0.003  0.001  0.007  0.010
    9  0.000  0.000  0.007  0.007
   10  0.000  0.000  0.060  0.060
   11  0.000  0.000  0.038  0.038
   12  0.011  0.000  0.036  0.047
   13  0.000  0.000  0.039  0.039
   14  0.000  0.000  0.018  0.019
   15  0.010  0.000  0.033  0.043
   16  0.011  0.000  0.037  0.048
   17  0.011  0.000  0.028  0.039
   18  0.000  0.000  0.109  0.109
   19  0.000  0.000  0.027  0.028
   20  0.000  0.000  0.045  0.045
   21  0.003  0.000  0.018  0.021
   22  0.002  0.000  0.022  0.024
   23  0.003  0.000  0.019  0.023
   24  0.000  0.000  0.020  0.020
   25  0.000  0.000  0.029  0.029
   26  0.000  0.000  0.027  0.028
   27  0.002  0.000  0.022  0.024
   28  0.000  0.000  0.014  0.014
   29  0.001  0.000  0.006  0.007
   30  0.003  0.000  0.004  0.008
   31  0.001  0.000  0.006  0.007
   32  0.001  0.000  0.005  0.006
   33  0.003  0.000  0.004  0.008
   34  0.001  0.000  0.005  0.006
   35  0.000  0.000  0.006  0.006
   36  0.000  0.000  0.001  0.001
   37  0.000  0.000  0.000  0.000
tot    0.071  0.009  0.755  0.836
 
band    13 # energy   -5.65337287 # occ.  2.00000000
 
ion      s      p      d    tot
    1  0.000  0.000  0.014  0.015
    2  0.001  0.001  0.010  0.012
    3  0.003  0.001  0.005  0.009
    4  0.001  0.001  0.010  0.012
    5  0.000  0.000  0.008  0.008
    6  0.001  0.000  0.009  0.010
    7  0.003  0.001  0.005  0.009
    8  0.000  0.000  0.009  0.010
    9  0.000  0.000  0.007  0.007
   10  0.015  0.000  0.029  0.043
   11  0.000  0.000  0.026  0.026
   12  0.003  0.000  0.053  0.056
   13  0.000  0.000  0.024  0.025
   14  0.000  0.000  0.045  0.045
   15  0.004  0.000  0.080  0.084
   16  0.004  0.000  0.051  0.056
   17  0.003  0.000  0.085  0.088
   18  0.014  0.000  0.005  0.019
   19  0.000  0.000  0.029  0.029
   20  0.004  0.000  0.010  0.014
   21  0.001  0.000  0.037  0.038
   22  0.001  0.000  0.020  0.021
   23  0.001  0.000  0.035  0.036
   24  0.002  0.000  0.023  0.026
   25  0.000  0.000  0.027  0.027
   26  0.000  0.000  0.029  0.029
   27  0.001  0.000  0.021  0.021
   28  0.000  0.000  0.014  0.014
   29  0.002  0.000  0.004  0.007
   30  0.000  0.000  0.006  0.006
   31  0.002  0.000  0.004  0.007
   32  0.002  0.000  0.005  0.007
   33  0.000  0.000  0.006  0.006
   34  0.002  0.000  0.005  0.007
   35  0.000  0.000  0.006  0.006
   36  0.000  0.000  0.001  0.001
   37  0.000  0.000  0.000  0.000
tot    0.071  0.009  0.755  0.836
 
band    14 # energy   -5.64425807 # occ.  2.00000000
 
ion      s      p      d    tot
    1  0.002  0.000  0.000  0.002
    2  0.001  0.000  0.011  0.012
    3  0.001  0.000  0.011  0.012
    4  0.001  0.000  0.011  0.012
    5  0.004  0.000  0.000  0.004
    6  0.001  0.000  0.011  0.012
    7  0.001  0.000  0.011  0.012
    8  0.001  0.000  0.011  0.012
    9  0.003  0.000  0.016  0.019
   10  0.003  0.000  0.025  0.028
   11  0.001  0.000  0.007  0.008
   12  0.003  0.000  0.025  0.028
   13  0.001  0.000  0.007  0.008
   14  0.001  0.000  0.007  0.008
   15  0.001  0.000  0.055  0.056
   16  0.003  0.000  0.025  0.028
   17  0.001  0.000  0.055  0.056
   18  0.001  0.000  0.055  0.056
   19  0.001  0.000  0.052  0.053
   20  0.006  0.000  0.020  0.026
   21  0.006  0.000  0.020  0.026
   22  0.000  0.000  0.038  0.039
   23  0.006  0.000  0.020  0.026
   24  0.000  0.000  0.038  0.039
   25  0.001  0.000  0.052  0.053
   26  0.001  0.000  0.052  0.053
   27  0.000  0.000  0.038  0.039
   28  0.002  0.000  0.002  0.003
   29  0.002  0.000  0.012  0.014
   30  0.002  0.000  0.012  0.014
   31  0.002  0.000  0.012  0.014
   32  0.002  0.000  0.012  0.014
   33  0.002  0.000  0.012  0.014
   34  0.002  0.000  0.012  0.014
   35  0.010  0.000  0.012  0.023
   36  0.000  0.001  0.002  0.003
   37  0.000  0.000  0.000  0.000
tot    0.070  0.008  0.760  0.838
 
band    15 # energy   -5.63924398 # occ.  2.00000000
 
ion      s      p      d    tot
    1  0.000  0.000  0.005  0.005
    2  0.003  0.000  0.006  0.010
    3  0.000  0.000  0.009  0.009
    4  0.003  0.000  0.006  0.010
    5  0.000  0.000  0.009  0.009
    6  0.002  0.000  0.006  0.008
    7  0.000  0.000  0.009  0.009
    8  0.001  0.000  0.006  0.008
    9  0.000  0.000  0.019  0.019
   10  0.003  0.000  0.025  0.028
   11  0.001  0.000  0.043  0.044
   12  0.001  0.000  0.022  0.023
   13  0.001  0.000  0.040  0.041
   14  0.004  0.000  0.009  0.014
   15  0.000  0.000  0.029  0.029
   16  0.001  0.000  0.022  0.023
   17  0.000  0.000  0.030  0.030
   18  0.000  0.000  0.037  0.037
   19  0.002  0.000  0.075  0.077
   20  0.001  0.000  0.053  0.053
   21  0.000  0.000  0.023  0.023
   22  0.004  0.000  0.060  0.064
   23  0.000  0.000  0.020  0.020
   24  0.014  0.000  0.022  0.036
   25  0.008  0.000  0.008  0.016
   26  0.002  0.000  0.069  0.071
   27  0.003  0.000  0.063  0.067
   28  0.000  0.000  0.004  0.005
   29  0.000  0.000  0.008  0.008
   30  0.002  0.000  0.002  0.004
   31  0.000  0.000  0.008  0.008
   32  0.001  0.001  0.008  0.010
   33  0.002  0.000  0.002  0.005
   34  0.001  0.001  0.008  0.009
   35  0.000  0.000  0.010  0.011
   36  0.000  0.000  0.001  0.001
   37  0.000  0.000  0.000  0.000
tot    0.061  0.008  0.774  0.842
 
band    16 # energy   -5.63923068 # occ.  2.00000000
 
ion      s      p      d    tot
    1  0.000  0.000  0.005  0.005
    2  0.000  0.000  0.008  0.008
    3  0.003  0.000  0.006  0.009
    4  0.000  0.000  0.008  0.008
    5  0.000  0.000  0.009  0.009
    6  0.002  0.000  0.008  0.010
    7  0.003  0.000  0.006  0.009
    8  0.002  0.000  0.008  0.010
    9  0.000  0.000  0.019  0.019
   10  0.000  0.000  0.021  0.021
   11  0.003  0.000  0.018  0.022
   12  0.002  0.000  0.024  0.026
   13  0.003  0.000  0.021  0.025
   14  0.000  0.000  0.052  0.052
   15  0.000  0.000  0.035  0.035
   16  0.002  0.000  0.024  0.026
   17  0.000  0.000  0.034  0.034
   18  0.000  0.000  0.027  0.027
   19  0.007  0.000  0.026  0.033
   20  0.000  0.000  0.011  0.011
   21  0.000  0.000  0.041  0.041
   22  0.010  0.000  0.037  0.047
   23  0.000  0.000  0.044  0.044
   24  0.000  0.000  0.075  0.075
   25  0.000  0.000  0.093  0.093
   26  0.006  0.000  0.032  0.038
   27  0.011  0.000  0.033  0.045
   28  0.000  0.000  0.004  0.005
   29  0.002  0.001  0.004  0.007
   30  0.000  0.000  0.010  0.010
   31  0.002  0.001  0.004  0.006
   32  0.001  0.000  0.004  0.005
   33  0.000  0.000  0.010  0.010
   34  0.001  0.000  0.005  0.005
   35  0.000  0.000  0.010  0.011
   36  0.000  0.000  0.001  0.001
   37  0.000  0.000  0.000  0.000
tot    0.061  0.008  0.774  0.842
 
band    17 # energy   -5.60121701 # occ.  2.00000000
 
ion      s      p      d    tot
    1  0.007  0.000  0.003  0.010
    2  0.002  0.000  0.010  0.012
    3  0.002  0.000  0.010  0.012
    4  0.002  0.000  0.010  0.012
    5  0.001  0.000  0.019  0.020
    6  0.002  0.000  0.010  0.012
    7  0.002  0.000  0.010  0.012
    8  0.002  0.000  0.010  0.012
    9  0.000  0.000  0.004  0.004
   10  0.000  0.000  0.008  0.008
   11  0.002  0.000  0.025  0.027
   12  0.000  0.000  0.008  0.008
   13  0.002  0.000  0.025  0.027
   14  0.002  0.000  0.025  0.027
   15  0.004  0.000  0.008  0.012
   16  0.000  0.000  0.008  0.008
   17  0.004  0.000  0.008  0.012
   18  0.004  0.000  0.008  0.012
   19  0.002  0.000  0.025  0.027
   20  0.000  0.000  0.016  0.017
   21  0.000  0.000  0.016  0.017
   22  0.001  0.001  0.014  0.016
   23  0.000  0.000  0.016  0.017
   24  0.001  0.001  0.014  0.016
   25  0.002  0.000  0.025  0.027
   26  0.002  0.000  0.025  0.027
   27  0.001  0.001  0.014  0.016
   28  0.014  0.000  0.046  0.060
   29  0.013  0.000  0.028  0.041
   30  0.013  0.000  0.028  0.041
   31  0.013  0.000  0.028  0.041
   32  0.013  0.000  0.028  0.041
   33  0.013  0.000  0.028  0.041
   34  0.013  0.000  0.028  0.041
   35  0.013  0.000  0.024  0.037
   36  0.006  0.002  0.008  0.017
   37  0.006  0.000  0.000  0.006
tot    0.163  0.010  0.620  0.793
 
band    18 # energy   -5.49607118 # occ.  2.00000000
 
ion      s      p      d    tot
    1  0.001  0.000  0.001  0.002
    2  0.000  0.000  0.007  0.008
    3  0.000  0.000  0.007  0.008
    4  0.000  0.000  0.007  0.008
    5  0.001  0.001  0.012  0.014
    6  0.000  0.000  0.007  0.008
    7  0.000  0.000  0.008  0.008
    8  0.000  0.000  0.007  0.008
    9  0.004  0.001  0.003  0.008
   10  0.001  0.000  0.020  0.021
   11  0.000  0.001  0.071  0.072
   12  0.001  0.000  0.020  0.021
   13  0.000  0.001  0.071  0.072
   14  0.000  0.001  0.071  0.071
   15  0.000  0.000  0.029  0.030
   16  0.001  0.000  0.020  0.021
   17  0.000  0.000  0.029  0.030
   18  0.000  0.000  0.030  0.030
   19  0.000  0.000  0.035  0.036
   20  0.001  0.000  0.063  0.064
   21  0.001  0.000  0.063  0.064
   22  0.001  0.000  0.018  0.019
   23  0.001  0.000  0.063  0.064
   24  0.001  0.000  0.018  0.019
   25  0.000  0.000  0.036  0.036
   26  0.000  0.000  0.035  0.036
   27  0.001  0.000  0.018  0.019
   28  0.002  0.001  0.006  0.009
   29  0.000  0.000  0.009  0.009
   30  0.000  0.000  0.009  0.009
   31  0.000  0.000  0.009  0.009
   32  0.000  0.000  0.009  0.009
   33  0.000  0.000  0.009  0.009
   34  0.000  0.000  0.009  0.009
   35  0.003  0.001  0.000  0.004
   36  0.000  0.001  0.001  0.001
   37  0.001  0.000  0.000  0.001
tot    0.022  0.015  0.830  0.867
 
band    19 # energy   -5.49502733 # occ.  2.00000000
 
ion      s      p      d    tot
    1  0.000  0.000  0.001  0.001
    2  0.001  0.001  0.006  0.008
    3  0.000  0.000  0.009  0.010
    4  0.001  0.001  0.006  0.008
    5  0.000  0.001  0.017  0.018
    6  0.001  0.000  0.007  0.007
    7  0.000  0.000  0.009  0.010
    8  0.001  0.000  0.006  0.007
    9  0.000  0.000  0.008  0.008
   10  0.000  0.001  0.021  0.022
   11  0.001  0.000  0.075  0.076
   12  0.000  0.000  0.041  0.042
   13  0.000  0.000  0.078  0.078
   14  0.002  0.000  0.048  0.050
   15  0.001  0.000  0.011  0.012
   16  0.000  0.000  0.040  0.040
   17  0.001  0.000  0.010  0.010
   18  0.002  0.001  0.034  0.037
   19  0.001  0.000  0.019  0.020
   20  0.003  0.000  0.043  0.045
   21  0.001  0.000  0.085  0.086
   22  0.000  0.000  0.020  0.021
   23  0.001  0.000  0.082  0.083
   24  0.000  0.001  0.021  0.022
   25  0.003  0.001  0.035  0.039
   26  0.001  0.000  0.018  0.019
   27  0.000  0.000  0.020  0.021
   28  0.000  0.000  0.011  0.011
   29  0.001  0.000  0.005  0.006
   30  0.000  0.000  0.007  0.008
   31  0.001  0.000  0.005  0.006
   32  0.002  0.001  0.007  0.009
   33  0.000  0.000  0.007  0.007
   34  0.002  0.001  0.007  0.009
   35  0.000  0.000  0.001  0.001
   36  0.000  0.002  0.002  0.004
   37  0.000  0.000  0.000  0.000
tot    0.025  0.016  0.822  0.864
 
band    20 # energy   -5.49501621 # occ.  2.00000000
 
ion      s      p      d    tot
    1  0.000  0.000  0.001  0.001
    2  0.000  0.000  0.009  0.009
    3  0.001  0.001  0.005  0.007
    4  0.000  0.000  0.008  0.009
    5  0.000  0.001  0.017  0.018
    6  0.001  0.001  0.008  0.009
    7  0.001  0.000  0.005  0.007
    8  0.001  0.001  0.008  0.009
    9  0.000  0.000  0.008  0.008
   10  0.000  0.000  0.047  0.048
   11  0.002  0.000  0.058  0.060
   12  0.000  0.001  0.026  0.027
   13  0.002  0.000  0.056  0.058
   14  0.000  0.000  0.086  0.086
   15  0.002  0.001  0.025  0.028
   16  0.000  0.001  0.028  0.029
   17  0.002  0.001  0.027  0.030
   18  0.000  0.000  0.003  0.003
   19  0.002  0.001  0.029  0.032
   20  0.000  0.000  0.098  0.098
   21  0.002  0.000  0.055  0.057
   22  0.000  0.001  0.021  0.022
   23  0.002  0.000  0.058  0.060
   24  0.000  0.000  0.020  0.020
   25  0.000  0.000  0.013  0.013
   26  0.003  0.001  0.030  0.033
   27  0.000  0.001  0.021  0.022
   28  0.000  0.000  0.011  0.011
   29  0.001  0.000  0.008  0.009
   30  0.002  0.001  0.005  0.007
   31  0.001  0.000  0.008  0.009
   32  0.000  0.000  0.006  0.006
   33  0.002  0.001  0.005  0.008
   34  0.000  0.000  0.006  0.006
   35  0.000  0.000  0.001  0.001
   36  0.000  0.002  0.002  0.004
   37  0.000  0.000  0.000  0.000
tot    0.025  0.016  0.822  0.864
 
band    21 # energy   -5.47663306 # occ.  2.00000000
 
ion      s      p      d    tot
    1  0.002  0.001  0.006  0.009
    2  0.000  0.000  0.011  0.012
    3  0.000  0.000  0.011  0.012
    4  0.000  0.000  0.011  0.012
    5  0.004  0.001  0.000  0.005
    6  0.000  0.000  0.011  0.012
    7  0.000  0.000  0.011  0.012
    8  0.000  0.000  0.011  0.012
    9  0.000  0.000  0.007  0.007
   10  0.001  0.001  0.056  0.058
   11  0.001  0.000  0.016  0.016
   12  0.001  0.001  0.056  0.058
   13  0.001  0.000  0.016  0.016
   14  0.001  0.000  0.016  0.016
   15  0.002  0.000  0.041  0.044
   16  0.001  0.001  0.056  0.058
   17  0.002  0.000  0.041  0.044
   18  0.002  0.000  0.041  0.044
   19  0.001  0.000  0.037  0.038
   20  0.000  0.000  0.022  0.023
   21  0.000  0.000  0.022  0.023
   22  0.001  0.001  0.049  0.051
   23  0.000  0.000  0.022  0.023
   24  0.001  0.001  0.049  0.051
   25  0.001  0.000  0.037  0.038
   26  0.001  0.000  0.037  0.038
   27  0.001  0.001  0.049  0.051
   28  0.001  0.000  0.006  0.007
   29  0.000  0.000  0.010  0.010
   30  0.000  0.000  0.010  0.010
   31  0.000  0.000  0.010  0.010
   32  0.000  0.000  0.010  0.010
   33  0.000  0.000  0.010  0.010
   34  0.000  0.000  0.010  0.010
   35  0.001  0.000  0.007  0.008
   36  0.003  0.002  0.000  0.005