 vasp.6.2.0 18Jan21 (build Jun 12 2021 23:27:24) complex                        
  
 executed on             LinuxIFC date 2022.05.28  02:39:56
 running on   28 total cores
 distrk:  each k-point on   28 cores,    1 groups
 distr:  one band on NCORE=   1 cores,   28 groups


--------------------------------------------------------------------------------------------------------


 INCAR:
   ISMEAR = -5
   SIGMA = 0.1
   ISPIN = 1
   EDIFF = 1.d-5
   EDIFFG = -0.01
   NSW = 0
   NELM = 150
   ENCUT = 500
   ISIF = 2
   IBRION = 2
   LREAL = Auto
   ALGO = Fast
   ICHARG = 11
   LORBIT = 10
   LCHARG = .F.
   LWAVE = .F.

 POTCAR:    PAW_PBE Cu 22Jun2005                  
 POTCAR:    PAW_PBE Pd 04Jan2005                  
 POTCAR:    PAW_PBE C 08Apr2002                   
 POTCAR:    PAW_PBE O 08Apr2002                   
 -----------------------------------------------------------------------------
|                                                                             |
|           W    W    AA    RRRRR   N    N  II  N    N   GGGG   !!!           |
|           W    W   A  A   R    R  NN   N  II  NN   N  G    G  !!!           |
|           W    W  A    A  R    R  N N  N  II  N N  N  G       !!!           |
|           W WW W  AAAAAA  RRRRR   N  N N  II  N  N N  G  GGG   !            |
|           WW  WW  A    A  R   R   N   NN  II  N   NN  G    G                |
|           W    W  A    A  R    R  N    N  II  N    N   GGGG   !!!           |
|                                                                             |
|     For optimal performance we recommend to set                             |
|       NCORE = 2 up to number-of-cores-per-socket                            |
|     NCORE specifies how many cores store one orbital (NPAR=cpu/NCORE).      |
|     This setting can greatly improve the performance of VASP for DFT.       |
|     The default, NCORE=1 might be grossly inefficient on modern             |
|     multi-core architectures or massively parallel machines. Do your        |
|     own testing! More info at https://www.vasp.at/wiki/index.php/NCORE      |
|     Unfortunately you need to use the default for GW and RPA                |
|     calculations (for HF NCORE is supported but not extensively tested      |
|     yet).                                                                   |
|                                                                             |
 -----------------------------------------------------------------------------

 POTCAR:    PAW_PBE Cu 22Jun2005                  
   VRHFIN =Cu: d10 p1                                                                               
   LEXCH  = PE                                                                                      
   EATOM  =  1390.9808 eV,  102.2342 Ry                                                             
                                                                                                    
   TITEL  = PAW_PBE Cu 22Jun2005                                                                    
   LULTRA =        F    use ultrasoft PP ?                                                          
   IUNSCR =        1    unscreen: 0-lin 1-nonlin 2-no                                               
   RPACOR =    2.000    partial core radius                                                         
   POMASS =   63.546; ZVAL   =   11.000    mass and valenz                                          
   RCORE  =    2.300    outmost cutoff radius                                                       
   RWIGS  =    2.200; RWIGS  =    1.164    wigner-seitz radius (au A)                               
   ENMAX  =  295.446; ENMIN  =  221.585 eV                                                          
   ICORE  =        3    local potential                                                             
   LCOR   =        T    correct aug charges                                                         
   LPAW   =        T    paw PP                                                                      
   EAUG   =  586.980                                                                                
   DEXC   =    0.000                                                                                
   RMAX   =    2.344    core radius for proj-oper                                                   
   RAUG   =    1.300    factor for augmentation sphere                                              
   RDEP   =    2.302    radius for radial grids                                                     
   RDEPT  =    1.771    core radius for aug-charge                                                  
                                                                                                    
   Atomic configuration                                                                             
    9 entries                                                                                       
     n  l   j            E        occ.                                                              
     1  0  0.50     -8850.2468   2.0000                                                             
     2  0  0.50     -1062.3498   2.0000                                                             
     2  1  1.50      -916.8226   6.0000                                                             
     3  0  0.50      -114.6929   2.0000                                                             
     3  1  1.50       -72.1325   6.0000                                                             
     3  2  2.50        -5.0394  10.0000                                                             
     4  0  0.50        -4.6097   1.0000                                                             
     4  1  0.50        -4.0817   0.0000                                                             
     4  3  2.50        -1.3606   0.0000                                                             
   Description                                                                                      
     l       E           TYP  RCUT    TYP  RCUT                                                     
     2     -5.0393973     23  2.200                                                                 
     2     10.8846608     23  2.200                                                                 
     0     -4.6097109     23  2.200                                                                 
     0      8.2520465     23  2.200                                                                 
     1     -2.7211652     23  2.200                                                                 
     1     21.7055443     23  2.200                                                                 
     3      2.7211652     23  2.300                                                                 
  local pseudopotential read in
  partial core-charges read in
  partial kinetic energy density read in
  atomic valenz-charges read in
  non local Contribution for L=           2  read in
    real space projection operators read in
  non local Contribution for L=           2  read in
    real space projection operators read in
  non local Contribution for L=           0  read in
    real space projection operators read in
  non local Contribution for L=           0  read in
    real space projection operators read in
  non local Contribution for L=           1  read in
    real space projection operators read in
  non local Contribution for L=           1  read in
    real space projection operators read in
    PAW grid and wavefunctions read in
 
   number of l-projection  operators is LMAX  =           6
   number of lm-projection operators is LMMAX =          18
 
 POTCAR:    PAW_PBE Pd 04Jan2005                  
   VRHFIN =Pd : s1 d9                                                                               
   LEXCH  = PE                                                                                      
   EATOM  =   809.7530 eV,   59.5152 Ry                                                             
                                                                                                    
   TITEL  = PAW_PBE Pd 04Jan2005                                                                    
   LULTRA =        F    use ultrasoft PP ?                                                          
   IUNSCR =        1    unscreen: 0-lin 1-nonlin 2-no                                               
   RPACOR =    2.000    partial core radius                                                         
   POMASS =  106.420; ZVAL   =   10.000    mass and valenz                                          
   RCORE  =    2.600    outmost cutoff radius                                                       
   RWIGS  =    2.710; RWIGS  =    1.434    wigner-seitz radius (au A)                               
   ENMAX  =  250.925; ENMIN  =  188.194 eV                                                          
   ICORE  =        3    local potential                                                             
   LCOR   =        T    correct aug charges                                                         
   LPAW   =        T    paw PP                                                                      
   EAUG   =  416.230                                                                                
   DEXC   =    0.000                                                                                
   RMAX   =    2.653    core radius for proj-oper                                                   
   RAUG   =    1.300    factor for augmentation sphere                                              
   RDEP   =    2.734    radius for radial grids                                                     
   RDEPT  =    2.103    core radius for aug-charge                                                  
                                                                                                    
   Atomic configuration                                                                             
   12 entries                                                                                       
     n  l   j            E        occ.                                                              
     1  0  0.50    -24164.6631   2.0000                                                             
     2  0  0.50     -3530.9218   2.0000                                                             
     2  1  1.50     -3165.6822   6.0000                                                             
     3  0  0.50      -639.4577   2.0000                                                             
     3  1  1.50      -519.4532   6.0000                                                             
     3  2  2.50      -328.9757  10.0000                                                             
     4  0  0.50       -88.7014   2.0000                                                             
     4  1  1.50       -54.4540   6.0000                                                             
     4  2  2.50        -6.6878   9.0000                                                             
     5  0  0.50        -4.3543   1.0000                                                             
     5  1  0.50        -1.3606   0.0000                                                             
     4  3  2.50        -1.3606   0.0000                                                             
   Description                                                                                      
     l       E           TYP  RCUT    TYP  RCUT                                                     
     2     -6.6878251     23  2.400                                                                 
     2     -8.0484077     23  2.400                                                                 
     0     -4.3542939     23  2.400                                                                 
     0      4.3406793     23  2.400                                                                 
     1     -4.0817478     23  2.600                                                                 
     1     15.8380318     23  2.600                                                                 
     3     -4.0817478     23  2.400                                                                 
  local pseudopotential read in
  partial core-charges read in
  partial kinetic energy density read in
  atomic valenz-charges read in
  non local Contribution for L=           2  read in
    real space projection operators read in
  non local Contribution for L=           2  read in
    real space projection operators read in
  non local Contribution for L=           0  read in
    real space projection operators read in
  non local Contribution for L=           0  read in
    real space projection operators read in
  non local Contribution for L=           1  read in
    real space projection operators read in
  non local Contribution for L=           1  read in
    real space projection operators read in
    PAW grid and wavefunctions read in
 
   number of l-projection  operators is LMAX  =           6
   number of lm-projection operators is LMMAX =          18
 
 POTCAR:    PAW_PBE C 08Apr2002                   
   VRHFIN =C: s2p2                                                                                  
   LEXCH  = PE                                                                                      
   EATOM  =   147.1560 eV,   10.8157 Ry                                                             
                                                                                                    
   TITEL  = PAW_PBE C 08Apr2002                                                                     
   LULTRA =        F    use ultrasoft PP ?                                                          
   IUNSCR =        1    unscreen: 0-lin 1-nonlin 2-no                                               
   RPACOR =    1.200    partial core radius                                                         
   POMASS =   12.011; ZVAL   =    4.000    mass and valenz                                          
   RCORE  =    1.500    outmost cutoff radius                                                       
   RWIGS  =    1.630; RWIGS  =    0.863    wigner-seitz radius (au A)                               
   ENMAX  =  400.000; ENMIN  =  300.000 eV                                                          
   ICORE  =        2    local potential                                                             
   LCOR   =        T    correct aug charges                                                         
   LPAW   =        T    paw PP                                                                      
   EAUG   =  644.873                                                                                
   DEXC   =    0.000                                                                                
   RMAX   =    1.529    core radius for proj-oper                                                   
   RAUG   =    1.300    factor for augmentation sphere                                              
   RDEP   =    1.501    radius for radial grids                                                     
   RDEPT  =    1.300    core radius for aug-charge                                                  
                                                                                                    
   Atomic configuration                                                                             
    4 entries                                                                                       
     n  l   j            E        occ.                                                              
     1  0  0.50      -273.3789   2.0000                                                             
     2  0  0.50       -13.7508   2.0000                                                             
     2  1  0.50        -5.2854   2.0000                                                             
     3  2  1.50        -5.4423   0.0000                                                             
   Description                                                                                      
     l       E           TYP  RCUT    TYP  RCUT                                                     
     0    -13.7508458     23  1.200                                                                 
     0     -8.2022199     23  1.200                                                                 
     1     -5.2854383     23  1.500                                                                 
     1     34.0145650     23  1.500                                                                 
     2     -5.4423304      7  1.500                                                                 
  local pseudopotential read in
  partial core-charges read in
  partial kinetic energy density read in
  atomic valenz-charges read in
  non local Contribution for L=           0  read in
    real space projection operators read in
  non local Contribution for L=           0  read in
    real space projection operators read in
  non local Contribution for L=           1  read in
    real space projection operators read in
  non local Contribution for L=           1  read in
    real space projection operators read in
    PAW grid and wavefunctions read in
 
   number of l-projection  operators is LMAX  =           4
   number of lm-projection operators is LMMAX =           8
 
 POTCAR:    PAW_PBE O 08Apr2002                   
   VRHFIN =O: s2p4                                                                                  
   LEXCH  = PE                                                                                      
   EATOM  =   432.3788 eV,   31.7789 Ry                                                             
                                                                                                    
   TITEL  = PAW_PBE O 08Apr2002                                                                     
   LULTRA =        F    use ultrasoft PP ?                                                          
   IUNSCR =        1    unscreen: 0-lin 1-nonlin 2-no                                               
   RPACOR =    1.200    partial core radius                                                         
   POMASS =   16.000; ZVAL   =    6.000    mass and valenz                                          
   RCORE  =    1.520    outmost cutoff radius                                                       
   RWIGS  =    1.550; RWIGS  =    0.820    wigner-seitz radius (au A)                               
   ENMAX  =  400.000; ENMIN  =  300.000 eV                                                          
   ICORE  =        2    local potential                                                             
   LCOR   =        T    correct aug charges                                                         
   LPAW   =        T    paw PP                                                                      
   EAUG   =  605.392                                                                                
   DEXC   =    0.000                                                                                
   RMAX   =    1.553    core radius for proj-oper                                                   
   RAUG   =    1.300    factor for augmentation sphere                                              
   RDEP   =    1.550    radius for radial grids                                                     
   RDEPT  =    1.329    core radius for aug-charge                                                  
                                                                                                    
   Atomic configuration                                                                             
    4 entries                                                                                       
     n  l   j            E        occ.                                                              
     1  0  0.50      -514.6923   2.0000                                                             
     2  0  0.50       -23.9615   2.0000                                                             
     2  1  0.50        -9.0305   4.0000                                                             
     3  2  1.50        -9.5241   0.0000                                                             
   Description                                                                                      
     l       E           TYP  RCUT    TYP  RCUT                                                     
     0    -23.9615318     23  1.200                                                                 
     0     -9.5240782     23  1.200                                                                 
     1     -9.0304911     23  1.520                                                                 
     1      8.1634956     23  1.520                                                                 
     2     -9.5240782      7  1.500                                                                 
  local pseudopotential read in
  partial core-charges read in
  partial kinetic energy density read in
  kinetic energy density of atom read in
  atomic valenz-charges read in
  non local Contribution for L=           0  read in
    real space projection operators read in
  non local Contribution for L=           0  read in
    real space projection operators read in
  non local Contribution for L=           1  read in
    real space projection operators read in
  non local Contribution for L=           1  read in
    real space projection operators read in
    PAW grid and wavefunctions read in
 
   number of l-projection  operators is LMAX  =           4
   number of lm-projection operators is LMMAX =           8
 
 Optimization of the real space projectors (new method)

 maximal supplied QI-value         = 16.25
 optimisation between [QCUT,QGAM] = [ 11.38, 22.75] = [ 36.24,144.96] Ry 
 Optimized for a Real-space Cutoff    1.52 Angstroem

   l    n(q)    QCUT    max X(q) W(low)/X(q) W(high)/X(q)  e(spline) 
   2      9    11.376     4.610    0.21E-03    0.10E-03    0.26E-06
   2      9    11.376     8.522    0.33E-03    0.16E-03    0.37E-06
   0     10    11.376    51.609    0.62E-04    0.20E-04    0.13E-06
   0     10    11.376    27.747    0.54E-04    0.20E-04    0.13E-06
   1     10    11.376    20.408    0.13E-04    0.99E-04    0.19E-06
   1     10    11.376    13.425    0.12E-04    0.87E-04    0.17E-06
 Optimization of the real space projectors (new method)

 maximal supplied QI-value         = 14.36
 optimisation between [QCUT,QGAM] = [ 11.35, 22.84] = [ 36.05,146.02] Ry 
 Optimized for a Real-space Cutoff    1.47 Angstroem

   l    n(q)    QCUT    max X(q) W(low)/X(q) W(high)/X(q)  e(spline) 
   2      9    11.346    59.108    0.74E-04    0.81E-04    0.26E-06
   2      9    11.346    58.101    0.74E-04    0.83E-04    0.27E-06
   0     10    11.346   102.235    0.26E-04    0.31E-04    0.16E-06
   0     10    11.346    58.388    0.23E-04    0.29E-04    0.15E-06
   1     10    11.346    22.191    0.23E-03    0.26E-03    0.14E-06
   1     10    11.346    15.590    0.19E-03    0.22E-03    0.12E-06
 Optimization of the real space projectors (new method)

 maximal supplied QI-value         = 25.13
 optimisation between [QCUT,QGAM] = [ 11.31, 22.87] = [ 35.82,146.48] Ry 
 Optimized for a Real-space Cutoff    1.00 Angstroem

   l    n(q)    QCUT    max X(q) W(low)/X(q) W(high)/X(q)  e(spline) 
   0      7    11.310   115.676    0.43E-03    0.13E-02    0.19E-06
   0      7    11.310    87.132    0.43E-03    0.13E-02    0.18E-06
   1      6    11.310     4.429    0.42E-03    0.74E-03    0.11E-06
   1      6    11.310     2.733    0.34E-03    0.55E-03    0.92E-07
 Optimization of the real space projectors (new method)

 maximal supplied QI-value         = 24.76
 optimisation between [QCUT,QGAM] = [ 11.39, 22.77] = [ 36.31,145.25] Ry 
 Optimized for a Real-space Cutoff    1.00 Angstroem

   l    n(q)    QCUT    max X(q) W(low)/X(q) W(high)/X(q)  e(spline) 
   0      7    11.387    20.381    0.39E-03    0.13E-02    0.15E-06
   0      7    11.387    15.268    0.42E-03    0.14E-02    0.17E-06
   1      6    11.387     5.964    0.41E-03    0.11E-02    0.17E-06
   1      6    11.387     5.382    0.39E-03    0.87E-03    0.15E-06
  PAW_PBE Cu 22Jun2005                  :
 energy of atom  1       EATOM=-1390.9808
 kinetic energy error for atom=    0.0043 (will be added to EATOM!!)
  PAW_PBE Pd 04Jan2005                  :
 energy of atom  2       EATOM= -809.7530
 kinetic energy error for atom=    0.0049 (will be added to EATOM!!)
  PAW_PBE C 08Apr2002                   :
 energy of atom  3       EATOM= -147.1560
 kinetic energy error for atom=    0.0076 (will be added to EATOM!!)
  PAW_PBE O 08Apr2002                   :
 energy of atom  4       EATOM= -432.3788
 kinetic energy error for atom=    0.0224 (will be added to EATOM!!)
 
 
 POSCAR: Cu-Pd-CO2
  positions in direct lattice
  velocities in cartesian coordinates
 exchange correlation table for  LEXCH =        8
   RHO(1)=    0.500       N(1)  =     2000
   RHO(2)=  100.500       N(2)  =     4000

 VTST: version 3.2, (02/03/18)

 CHAIN: initializing optimizer
 
 OPT: Using VASP Conjugate-Gradient optimizer
 CHAIN: Read ICHAIN            0
 
 POSCAR: Cu-Pd-CO2
  positions in direct lattice
  velocities in cartesian coordinates
 


--------------------------------------------------------------------------------------------------------


 ion  position               nearest neighbor table
   1  0.000  0.000  0.229-   7 2.57   3 2.57   4 2.57   2 2.57   6 2.57   8 2.57  12 2.57  10 2.57
                            16 2.57
   2  0.333  0.000  0.229-   8 2.57   9 2.57   5 2.57   1 2.57   3 2.57  11 2.57   4 2.57  10 2.57
                            17 2.57
   3  0.667  0.000  0.229-   1 2.57   7 2.57   6 2.57   9 2.57   2 2.57  12 2.57   5 2.57  18 2.57
                            11 2.57
   4  0.000  0.333  0.229-   5 2.57   6 2.57   1 2.57   7 2.57   2 2.57  13 2.57   9 2.57  10 2.57
                            15 2.57
   5  0.333  0.333  0.229-   4 2.57   2 2.57   7 2.57  13 2.57   8 2.57   6 2.57   3 2.57  11 2.57
                            14 2.57
   6  0.667  0.333  0.229-   4 2.57   9 2.57  15 2.57   3 2.57   1 2.57   8 2.57  14 2.57   5 2.57
                            12 2.57
   7  0.000  0.667  0.229-   1 2.57   3 2.57  16 2.57  18 2.57   4 2.57   5 2.57   8 2.57   9 2.57
                            13 2.57
   8  0.333  0.667  0.229-   9 2.57   2 2.57  17 2.57   6 2.57   1 2.57   7 2.57   5 2.57  14 2.57
                            16 2.57
   9  0.667  0.667  0.229-   8 2.57   6 2.57   2 2.57  17 2.57   3 2.57   7 2.57   4 2.57  15 2.57
                            18 2.57
  10  0.111  0.111  0.318-  20 2.54  26 2.55  19 2.55  11 2.57  12 2.57  13 2.57   1 2.57   2 2.57
                             4 2.57  15 2.57  16 2.57  17 2.57
  11  0.444  0.111  0.318-  20 2.55  21 2.55  27 2.55  10 2.57  13 2.57   2 2.57  17 2.57  14 2.57
                            12 2.57   5 2.57   3 2.57  18 2.57
  12  0.778  0.111  0.318-  21 2.54  19 2.55  25 2.55  15 2.57  10 2.57  14 2.57  18 2.57   3 2.57
                             1 2.57  16 2.57  11 2.57   6 2.57
  13  0.111  0.444  0.318-  23 2.55  20 2.55  22 2.55  16 2.57  18 2.57  10 2.57  11 2.57  14 2.57
                             5 2.57   4 2.57   7 2.57  15 2.57
  14  0.444  0.444  0.318-  21 2.55  23 2.55  24 2.55  15 2.57  17 2.57  12 2.57  16 2.57  13 2.57
                            11 2.57   6 2.57   8 2.57   5 2.57
  15  0.778  0.444  0.318-  19 2.55  24 2.55  22 2.55  14 2.57  17 2.57  12 2.57   6 2.57  18 2.57
                            10 2.57   9 2.57  13 2.57   4 2.57
  16  0.111  0.778  0.318-  23 2.54  25 2.55  26 2.55  18 2.57  13 2.57   7 2.57  14 2.57  17 2.57
                            12 2.57  10 2.57   8 2.57   1 2.57
  17  0.444  0.778  0.318-  26 2.55  27 2.55  24 2.55  14 2.57  15 2.57   8 2.57   9 2.57  11 2.57
                            16 2.57  18 2.57  10 2.57   2 2.57
  18  0.778  0.778  0.318-  25 2.55  22 2.55  27 2.55  16 2.57  13 2.57   7 2.57  15 2.57  12 2.57
                            17 2.57   9 2.57   3 2.57  11 2.57
  19  0.889  0.222  0.407-  32 2.54  31 2.54  28 2.55  15 2.55  12 2.55  10 2.55  21 2.56  20 2.56
                            22 2.56  24 2.56  25 2.57  26 2.57
  20  0.222  0.222  0.407-  10 2.54  11 2.55  13 2.55  26 2.56  19 2.56  27 2.56  22 2.56  29 2.57
                            31 2.57  23 2.58  21 2.58  36 2.62
  21  0.557  0.222  0.407-  12 2.54  14 2.55  11 2.55  19 2.56  25 2.56  24 2.56  27 2.56  32 2.57
                            30 2.57  20 2.58  23 2.58  36 2.62
  22  0.889  0.555  0.407-  35 2.54  31 2.55  33 2.55  13 2.55  18 2.55  15 2.55  23 2.56  20 2.56
                            19 2.56  25 2.56  24 2.57  27 2.57
  23  0.222  0.557  0.407-  16 2.54  13 2.55  14 2.55  25 2.56  26 2.56  22 2.56  24 2.56  33 2.57
                            34 2.57  20 2.58  21 2.58  36 2.62
  24  0.555  0.555  0.407-  35 2.54  32 2.55  34 2.55  14 2.55  15 2.55  17 2.55  21 2.56  23 2.56
                            19 2.56  26 2.56  22 2.57  27 2.57
  25  0.889  0.889  0.407-  33 2.54  30 2.54  28 2.55  18 2.55  16 2.55  12 2.55  21 2.56  23 2.56
                            22 2.56  27 2.56  19 2.57  26 2.57
  26  0.222  0.889  0.407-  29 2.54  34 2.54  28 2.55  17 2.55  10 2.55  16 2.55  20 2.56  23 2.56
                            27 2.56  24 2.56  25 2.57  19 2.57
  27  0.555  0.889  0.407-  35 2.54  29 2.55  30 2.55  11 2.55  17 2.55  18 2.55  20 2.56  21 2.56
                            26 2.56  25 2.56  24 2.57  22 2.57
  28  0.000  0.000  0.495-  25 2.55  19 2.55  26 2.55  33 2.55  30 2.55  31 2.55  29 2.55  32 2.55
                            34 2.55
  29  0.333  0.996  0.495-  34 2.51  26 2.54  28 2.55  27 2.55  35 2.55  20 2.57  31 2.59  36 2.60
                            30 2.60
  30  0.671  0.996  0.495-  33 2.51  25 2.54  28 2.55  27 2.55  35 2.55  21 2.57  32 2.59  36 2.60
                            29 2.60
  31  0.996  0.333  0.495-  32 2.51  19 2.54  28 2.55  22 2.55  35 2.55  20 2.57  29 2.59  36 2.60
                            33 2.60
  32  0.671  0.333  0.495-  31 2.51  19 2.54  28 2.55  24 2.55  35 2.55  21 2.57  30 2.59  36 2.60
                            34 2.60
  33  0.996  0.671  0.495-  30 2.51  25 2.54  28 2.55  22 2.55  35 2.55  23 2.57  34 2.59  36 2.60
                            31 2.60
  34  0.333  0.671  0.495-  29 2.51  26 2.54  28 2.55  24 2.55  35 2.55  23 2.57  33 2.59  36 2.60
                            32 2.60
  35  0.667  0.667  0.495-  24 2.54  27 2.54  22 2.54  34 2.55  32 2.55  29 2.55  30 2.55  33 2.55
                            31 2.55
  36  0.333  0.333  0.498-  31 2.60  29 2.60  33 2.60  34 2.60  32 2.60  30 2.60  23 2.62  20 2.62
                            21 2.62
  37  0.334  0.333  0.651-  39 1.18  38 1.18
  38  0.181  0.333  0.651-  37 1.18
  39  0.486  0.333  0.651-  37 1.18
 
  LATTYP: Found a hexagonal cell.
 ALAT       =     7.6967864036
 C/A-ratio  =     3.0484540560
  
  Lattice vectors:
  
 A1 = (  -3.8483927580,  -6.6656128093,   0.0000000000)
 A2 = (   7.6967864037,   0.0000000000,   0.0000000000)
 A3 = (   0.0000000000,   0.0000000000,  23.4632997305)


Analysis of symmetry for initial positions (statically):
=====================================================================
 Subroutine PRICEL returns:
 Original cell was already a primitive cell.
 

 Routine SETGRP: Setting up the symmetry group for a 
 hexagonal supercell.


 Subroutine GETGRP returns: Found  2 space group operations
 (whereof  2 operations were pure point group operations)
 out of a pool of 24 trial point group operations.


The static configuration has the point symmetry C_1h.


Analysis of symmetry for dynamics (positions and initial velocities):
=====================================================================
 Subroutine PRICEL returns:
 Original cell was already a primitive cell.
 

 Routine SETGRP: Setting up the symmetry group for a 
 hexagonal supercell.


 Subroutine GETGRP returns: Found  2 space group operations
 (whereof  2 operations were pure point group operations)
 out of a pool of 24 trial point group operations.


The dynamic configuration has the point symmetry C_1h.


Analysis of constrained symmetry for selective dynamics:
=====================================================================
 Subroutine PRICEL returns:
 Original cell was already a primitive cell.
 

 Routine SETGRP: Setting up the symmetry group for a 
 hexagonal supercell.


 Subroutine GETGRP returns: Found  2 space group operations
 (whereof  2 operations were pure point group operations)
 out of a pool of 24 trial point group operations.


The constrained configuration has the point symmetry C_1h.


 Subroutine INISYM returns: Found  2 space group operations
 (whereof  2 operations are pure point group operations),
 and found     1 'primitive' translations


----------------------------------------------------------------------------------------

                                     Primitive cell                                     

  volume of cell :    1203.7564

  direct lattice vectors                    reciprocal lattice vectors
     7.696786404  0.000000000  0.000000000     0.129924354 -0.075011849  0.000000000
     3.848392758  6.665612809  0.000000000     0.000000000  0.150023716  0.000000000
     0.000000000  0.000000000 23.463299730     0.000000000  0.000000000  0.042619751

  length of vectors
     7.696786404  7.696786404 23.463299730     0.150023716  0.150023716  0.042619751

  position of ions in fractional coordinates (direct lattice)
     0.000000000  0.000000000  0.228934536
     0.333333343  0.000000000  0.228934536
     0.666666687  0.000000000  0.228934536
     1.000000000  0.333333343  0.228934536
     0.333333313  0.333333343  0.228934536
     0.666666687  0.333333343  0.228934536
     1.000000000  0.666666687  0.228934536
     0.333333373  0.666666687  0.228934536
     0.666666627  0.666666687  0.228934536
     0.111111119  0.111111112  0.318214403
     0.444444418  0.111111112  0.318214403
     0.777777791  0.111111112  0.318214403
     0.111111119  0.444444448  0.318214403
     0.444444478  0.444444448  0.318214403
     0.777777731  0.444444448  0.318214403
     0.111111112  0.777777731  0.318214403
     0.444444478  0.777777731  0.318214403
     0.777777851  0.777777731  0.318214403
     0.888815442  0.222369132  0.406590926
     0.221692367  0.221692352  0.406586099
     0.556615327  0.221692352  0.406586099
     0.889042275  0.555478833  0.406904436
     0.221692337  0.556615267  0.406586099
     0.555478893  0.555478833  0.406904436
     0.888815442  0.888815442  0.406590926
     0.222369147  0.888815442  0.406590926
     0.555478833  0.889042275  0.406904436
     0.000000000  0.000000000  0.494823168
     0.333095982  0.996307002  0.495332886
     0.670597045  0.996307002  0.495332886
     0.996307002  0.333095982  0.495332886
     0.670597045  0.333095982  0.495332886
     0.996307002  0.670597045  0.495332886
     0.333096012  0.670597045  0.495332886
     0.666666627  0.666666687  0.494864558
     0.333333313  0.333333343  0.498457005
     0.333629199  0.332741572  0.651163611
     0.180626817  0.332890833  0.651399510
     0.486482319  0.332890833  0.651399510

  ion indices of the primitive-cell ions
   primitive index   ion index
                 1           1
                 2           2
                 3           3
                 4           4
                 5           5
                 6           6
                 7           7
                 8           8
                 9           9
                10          10
                11          11
                12          12
                13          13
                14          14
                15          15
                16          16
                17          17
                18          18
                19          19
                20          20
                21          21
                22          22
                23          23
                24          24
                25          25
                26          26
                27          27
                28          28
                29          29
                30          30
                31          31
                32          32
                33          33
                34          34
                35          35
                36          36
                37          37
                38          38
                39          39

----------------------------------------------------------------------------------------

 
 
 KPOINTS: Automatic mesh                          

Automatic generation of k-mesh.
 Grid dimensions read from file:
 generate k-points for:    8    8    1

 Generating k-lattice:

  Cartesian coordinates                     Fractional coordinates (reciprocal lattice)
     0.016240544 -0.009376481  0.000000000     0.125000000 -0.000000000  0.000000000
     0.000000000  0.018752964  0.000000000     0.000000000  0.125000000  0.000000000
     0.000000000  0.000000000  0.042619751     0.000000000  0.000000000  1.000000000

  Length of vectors
     0.018752964  0.018752964  0.042619751

  Shift w.r.t. Gamma in fractional coordinates (k-lattice)
     0.000000000  0.000000000  0.000000000

 TETIRR: Found    100 inequivalent tetrahedra from      384
 
 Subroutine IBZKPT returns following result:
 ===========================================
 
 Found     21 irreducible k-points:
 
 Following reciprocal coordinates:
            Coordinates               Weight
  0.000000  0.000000  0.000000      1.000000
  0.125000 -0.000000  0.000000      4.000000
  0.000000  0.125000  0.000000      2.000000
  0.250000 -0.000000  0.000000      4.000000
  0.000000  0.250000  0.000000      2.000000
  0.375000 -0.000000  0.000000      4.000000
  0.000000  0.375000  0.000000      2.000000
  0.500000 -0.000000  0.000000      2.000000
  0.000000  0.500000  0.000000      1.000000
  0.250000  0.125000  0.000000      2.000000
  0.125000  0.250000  0.000000      4.000000
  0.375000  0.125000  0.000000      4.000000
  0.250000  0.375000  0.000000      4.000000
 -0.125000  0.250000  0.000000      4.000000
  0.500000  0.125000  0.000000      4.000000
  0.375000  0.500000  0.000000      4.000000
 -0.125000  0.375000  0.000000      4.000000
  0.500000  0.250000  0.000000      2.000000
  0.250000  0.500000  0.000000      4.000000
 -0.375000  0.250000  0.000000      4.000000
 -0.250000  0.375000  0.000000      2.000000
 
 Following cartesian coordinates:
            Coordinates               Weight
  0.000000  0.000000  0.000000      1.000000
  0.016241 -0.009376  0.000000      4.000000
  0.000000  0.018753  0.000000      2.000000
  0.032481 -0.018753  0.000000      4.000000
  0.000000  0.037506  0.000000      2.000000
  0.048722 -0.028129  0.000000      4.000000
  0.000000  0.056259  0.000000      2.000000
  0.064962 -0.037506  0.000000      2.000000
  0.000000  0.075012  0.000000      1.000000
  0.032481  0.000000  0.000000      2.000000
  0.016241  0.028129  0.000000      4.000000
  0.048722 -0.009376  0.000000      4.000000
  0.032481  0.037506  0.000000      4.000000
 -0.016241  0.046882  0.000000      4.000000
  0.064962 -0.018753  0.000000      4.000000
  0.048722  0.046882  0.000000      4.000000
 -0.016241  0.065635  0.000000      4.000000
  0.064962  0.000000  0.000000      2.000000
  0.032481  0.056259  0.000000      4.000000
 -0.048722  0.065635  0.000000      4.000000
 -0.032481  0.075012  0.000000      2.000000
 


--------------------------------------------------------------------------------------------------------




 Dimension of arrays:
   k-points           NKPTS =     21   k-points in BZ     NKDIM =     21   number of bands    NBANDS=    252
   number of dos      NEDOS =    301   number of ions     NIONS =     39
   non local maximal  LDIM  =      6   non local SUM 2l+1 LMDIM =     18
   total plane-waves  NPLWV = 225792
   max r-space proj   IRMAX =   2801   max aug-charges    IRDMAX=   9297
   dimension x,y,z NGX =    42 NGY =   42 NGZ =  128
   dimension x,y,z NGXF=    84 NGYF=   84 NGZF=  256
   support grid    NGXF=    84 NGYF=   84 NGZF=  256
   ions per type =              35   1   1   2
   NGX,Y,Z   is equivalent  to a cutoff of   9.07,  9.07,  9.07 a.u.
   NGXF,Y,Z  is equivalent  to a cutoff of  18.14, 18.14, 18.14 a.u.

 SYSTEM =  unknown system                          
 POSCAR =  Cu-Pd-CO2                               

 Startparameter for this run:
   NWRITE =      2    write-flag & timer
   PREC   = normal    normal or accurate (medium, high low for compatibility)
   ISTART =      0    job   : 0-new  1-cont  2-samecut
   ICHARG =     11    charge: 1-file 2-atom 10-const
   ISPIN  =      1    spin polarized calculation?
   LNONCOLLINEAR =      F non collinear calculations
   LSORBIT =      F    spin-orbit coupling
   INIWAV =      1    electr: 0-lowe 1-rand  2-diag
   LASPH  =      F    aspherical Exc in radial PAW
   METAGGA=      F    non-selfconsistent MetaGGA calc.

 Electronic Relaxation 1
   ENCUT  =  500.0 eV  36.75 Ry    6.06 a.u.  14.03 14.03 42.78*2*pi/ulx,y,z
   ENINI  =  500.0     initial cutoff
   ENAUG  =  644.9 eV  augmentation charge cutoff
   NELM   =    150;   NELMIN=  2; NELMDL= -5     # of ELM steps 
   EDIFF  = 0.1E-04   stopping-criterion for ELM
   LREAL  =      T    real-space projection
   NLSPLINE    = F    spline interpolate recip. space projectors
   LCOMPAT=      F    compatible to vasp.4.4
   GGA_COMPAT  = T    GGA compatible to vasp.4.4-vasp.4.6
   LMAXPAW     = -100 max onsite density
   LMAXMIX     =    2 max onsite mixed and CHGCAR
   VOSKOWN=      0    Vosko Wilk Nusair interpolation
   ROPT   =   -0.00050  -0.00050  -0.00050  -0.00050
 Ionic relaxation
   EDIFFG = -.1E-01   stopping-criterion for IOM
   NSW    =      0    number of steps for IOM
   NBLOCK =      1;   KBLOCK =      1    inner block; outer block 
   IBRION =     -1    ionic relax: 0-MD 1-quasi-New 2-CG
   NFREE  =      1    steps in history (QN), initial steepest desc. (CG)
   ISIF   =      2    stress and relaxation
   IWAVPR =     10    prediction:  0-non 1-charg 2-wave 3-comb
   ISYM   =      2    0-nonsym 1-usesym 2-fastsym
   LCORR  =      T    Harris-Foulkes like correction to forces

   POTIM  = 0.5000    time-step for ionic-motion
   TEIN   =    0.0    initial temperature
   TEBEG  =    0.0;   TEEND  =   0.0 temperature during run
   SMASS  =  -3.00    Nose mass-parameter (am)
   estimated Nose-frequenzy (Omega)   =  0.10E-29 period in steps = 0.13E+47 mass=  -0.135E-26a.u.
   SCALEE = 1.0000    scale energy and forces
   NPACO  =    256;   APACO  = 16.0  distance and # of slots for P.C.
   PSTRESS=    0.0 pullay stress

  Mass of Ions in am
   POMASS =  63.55106.42 12.01 16.00
  Ionic Valenz
   ZVAL   =  11.00 10.00  4.00  6.00
  Atomic Wigner-Seitz radii
   RWIGS  =  -1.00 -1.00 -1.00 -1.00
  virtual crystal weights 
   VCA    =   1.00  1.00  1.00  1.00
   NELECT =     411.0000    total number of electrons
   NUPDOWN=      -1.0000    fix difference up-down

 DOS related values:
   EMIN   =  10.00;   EMAX   =-10.00  energy-range for DOS
   EFERMI =   0.00
   ISMEAR =    -5;   SIGMA  =   0.10  broadening in eV -4-tet -1-fermi 0-gaus

 Electronic relaxation 2 (details)
   IALGO  =     68    algorithm
   LDIAG  =      T    sub-space diagonalisation (order eigenvalues)
   LSUBROT=      F    optimize rotation matrix (better conditioning)
   TURBO    =      0    0=normal 1=particle mesh
   IRESTART =      0    0=no restart 2=restart with 2 vectors
   NREBOOT  =      0    no. of reboots
   NMIN     =      0    reboot dimension
   EREF     =   0.00    reference energy to select bands
   IMIX   =      4    mixing-type and parameters
     AMIX     =   0.40;   BMIX     =  1.00
     AMIX_MAG =   1.60;   BMIX_MAG =  1.00
     AMIN     =   0.10
     WC   =   100.;   INIMIX=   1;  MIXPRE=   1;  MAXMIX= -45

 Intra band minimization:
   WEIMIN = 0.0000     energy-eigenvalue tresh-hold
   EBREAK =  0.99E-08  absolut break condition
   DEPER  =   0.30     relativ break condition  

   TIME   =   0.40     timestep for ELM

  volume/ion in A,a.u.               =      30.87       208.29
  Fermi-wavevector in a.u.,A,eV,Ry     =   1.144219  2.162261 17.813259  1.309238
  Thomas-Fermi vector in A             =   2.280912
 
 Write flags
   LWAVE        =      F    write WAVECAR
   LDOWNSAMPLE  =      F    k-point downsampling of WAVECAR
   LCHARG       =      F    write CHGCAR
   LVTOT        =      F    write LOCPOT, total local potential
   LVHAR        =      F    write LOCPOT, Hartree potential only
   LELF         =      F    write electronic localiz. function (ELF)
   LORBIT       =     10    0 simple, 1 ext, 2 COOP (PROOUT), +10 PAW based schemes


 Dipole corrections
   LMONO  =      F    monopole corrections only (constant potential shift)
   LDIPOL =      F    correct potential (dipole corrections)
   IDIPOL =      0    1-x, 2-y, 3-z, 4-all directions 
   EPSILON=  1.0000000 bulk dielectric constant

 Exchange correlation treatment:
   GGA     =    --    GGA type
   LEXCH   =     8    internal setting for exchange type
   VOSKOWN=      0    Vosko Wilk Nusair interpolation
   LHFCALC =     F    Hartree Fock is set to
   LHFONE  =     F    Hartree Fock one center treatment
   AEXX    =    0.0000 exact exchange contribution

 Linear response parameters
   LEPSILON=     F    determine dielectric tensor
   LRPA    =     F    only Hartree local field effects (RPA)
   LNABLA  =     F    use nabla operator in PAW spheres
   LVEL    =     F    velocity operator in full k-point grid
   LINTERFAST=   F  fast interpolation
   KINTER  =     0    interpolate to denser k-point grid
   CSHIFT  =0.1000    complex shift for real part using Kramers Kronig
   OMEGAMAX=  -1.0    maximum frequency
   DEG_THRESHOLD= 0.2000000E-02 threshold for treating states as degnerate
   RTIME   =   -0.100 relaxation time in fs
  (WPLASMAI=    0.000 imaginary part of plasma frequency in eV, 0.658/RTIME)
   DFIELD  = 0.0000000 0.0000000 0.0000000 field for delta impulse in time
 
 Orbital magnetization related:
   ORBITALMAG=     F  switch on orbital magnetization
   LCHIMAG   =     F  perturbation theory with respect to B field
   DQ        =  0.001000  dq finite difference perturbation B field
   LLRAUG    =     F  two centre corrections for induced B field



--------------------------------------------------------------------------------------------------------


 Static calculation
 charge density and potential remain constant during run
 non-spin polarized calculation
 RMM-DIIS sequential band-by-band and
  variant of blocked Davidson during initial phase
 perform sub-space diagonalisation
    before iterative eigenvector-optimisation
 no mixing
 using additional bands           46
 real space projection scheme for non local part
 use partial core corrections
 calculate Harris-corrections to forces 
   (improved forces if not selfconsistent)
 use gradient corrections 
 WARNING: stress and forces are not correct
  (second derivative of E(xc) not defined)
 use of overlap-Matrix (Vanderbilt PP)
 Fermi weights with tetrahedron method with Bloechl corrections


--------------------------------------------------------------------------------------------------------


  energy-cutoff  :      500.00
  volume of cell :     1203.76
      direct lattice vectors                 reciprocal lattice vectors
     7.696786404  0.000000000  0.000000000     0.129924354 -0.075011849  0.000000000
     3.848392758  6.665612809  0.000000000     0.000000000  0.150023716  0.000000000
     0.000000000  0.000000000 23.463299730     0.000000000  0.000000000  0.042619751

  length of vectors
     7.696786404  7.696786404 23.463299730     0.150023716  0.150023716  0.042619751


 
 k-points in units of 2pi/SCALE and weight: Automatic mesh                          
   0.00000000  0.00000000  0.00000000       0.016
   0.01624054 -0.00937648  0.00000000       0.062
   0.00000000  0.01875296  0.00000000       0.031
   0.03248109 -0.01875296  0.00000000       0.062
   0.00000000  0.03750593  0.00000000       0.031
   0.04872163 -0.02812944  0.00000000       0.062
   0.00000000  0.05625889  0.00000000       0.031
   0.06496218 -0.03750592  0.00000000       0.031
   0.00000000  0.07501186  0.00000000       0.016
   0.03248109  0.00000000  0.00000000       0.031
   0.01624054  0.02812945  0.00000000       0.062
   0.04872163 -0.00937648  0.00000000       0.062
   0.03248109  0.03750593  0.00000000       0.062
  -0.01624054  0.04688241  0.00000000       0.062
   0.06496218 -0.01875296  0.00000000       0.062
   0.04872163  0.04688241  0.00000000       0.062
  -0.01624054  0.06563537  0.00000000       0.062
   0.06496218  0.00000000  0.00000000       0.031
   0.03248109  0.05625890  0.00000000       0.062
  -0.04872163  0.06563537  0.00000000       0.062
  -0.03248109  0.07501186  0.00000000       0.031
 
 k-points in reciprocal lattice and weights: Automatic mesh                          
   0.00000000  0.00000000  0.00000000       0.016
   0.12500000 -0.00000000  0.00000000       0.062
   0.00000000  0.12500000  0.00000000       0.031
   0.25000000 -0.00000000  0.00000000       0.062
   0.00000000  0.25000000  0.00000000       0.031
   0.37500000 -0.00000000  0.00000000       0.062
   0.00000000  0.37500000  0.00000000       0.031
   0.50000000 -0.00000000  0.00000000       0.031
   0.00000000  0.50000000  0.00000000       0.016
   0.25000000  0.12500000  0.00000000       0.031
   0.12500000  0.25000000  0.00000000       0.062
   0.37500000  0.12500000  0.00000000       0.062
   0.25000000  0.37500000  0.00000000       0.062
  -0.12500000  0.25000000  0.00000000       0.062
   0.50000000  0.12500000  0.00000000       0.062
   0.37500000  0.50000000  0.00000000       0.062
  -0.12500000  0.37500000  0.00000000       0.062
   0.50000000  0.25000000  0.00000000       0.031
   0.25000000  0.50000000  0.00000000       0.062
  -0.37500000  0.25000000  0.00000000       0.062
  -0.25000000  0.37500000  0.00000000       0.031
 
 position of ions in fractional coordinates (direct lattice) 
   0.00000000  0.00000000  0.22893454
   0.33333334  0.00000000  0.22893454
   0.66666669  0.00000000  0.22893454
   0.00000000  0.33333334  0.22893454
   0.33333331  0.33333334  0.22893454
   0.66666669  0.33333334  0.22893454
   0.00000000  0.66666669  0.22893454
   0.33333337  0.66666669  0.22893454
   0.66666663  0.66666669  0.22893454
   0.11111112  0.11111111  0.31821440
   0.44444442  0.11111111  0.31821440
   0.77777779  0.11111111  0.31821440
   0.11111112  0.44444445  0.31821440
   0.44444448  0.44444445  0.31821440
   0.77777773  0.44444445  0.31821440
   0.11111111  0.77777773  0.31821440
   0.44444448  0.77777773  0.31821440
   0.77777785  0.77777773  0.31821440
   0.88881544  0.22236913  0.40659093
   0.22169237  0.22169235  0.40658610
   0.55661533  0.22169235  0.40658610
   0.88904227  0.55547883  0.40690444
   0.22169234  0.55661527  0.40658610
   0.55547889  0.55547883  0.40690444
   0.88881544  0.88881544  0.40659093
   0.22236915  0.88881544  0.40659093
   0.55547883  0.88904227  0.40690444
   0.00000000  0.00000000  0.49482317
   0.33309598  0.99630700  0.49533289
   0.67059705  0.99630700  0.49533289
   0.99630700  0.33309598  0.49533289
   0.67059705  0.33309598  0.49533289
   0.99630700  0.67059705  0.49533289
   0.33309601  0.67059705  0.49533289
   0.66666663  0.66666669  0.49486456
   0.33333331  0.33333334  0.49845701
   0.33362920  0.33274157  0.65116361
   0.18062682  0.33289083  0.65139951
   0.48648232  0.33289083  0.65139951
 
 position of ions in cartesian coordinates  (Angst):
   0.00000000  0.00000000  5.37155964
   2.56559554  0.00000000  5.37155964
   5.13119109  0.00000000  5.37155964
   1.28279762  2.22187100  5.37155964
   3.84839293  2.22187100  5.37155964
   6.41398872  2.22187100  5.37155964
   2.56559525  4.44374201  5.37155964
   5.13119102  4.44374201  5.37155964
   7.69678588  4.44374201  5.37155964
   1.28279775  0.74062365  7.46635991
   3.84839295  0.74062365  7.46635991
   6.41398873  0.74062365  7.46635991
   2.56559535  2.96249461  7.46635991
   5.13119101  2.96249461  7.46635991
   7.69678586  2.96249461  7.46635991
   3.84839268  5.18436521  7.46635991
   6.41398840  5.18436521  7.46635991
   8.97958418  5.18436521  7.46635991
   7.69678637  1.48222653  9.53996477
   2.55947803  1.47771538  9.53985152
   5.13730852  1.47771538  9.53985152
   8.98046921  3.70260682  9.54732074
   3.84839272  3.71018185  9.53985152
   6.41310311  3.70260682  9.54732074
  10.26153352  5.92449960  9.53996477
   5.13203874  5.92449960  9.53996477
   7.69678578  5.92601157  9.54732074
   0.00000000  0.00000000 11.61018429
   6.39794928  6.64099672 11.62214397
   8.99562287  6.64099672 11.62214397
   8.95024636  2.22028885 11.62214397
   6.44332639  2.22028885 11.62214397
  10.24908300  4.46994026 11.62214397
   5.14448967  4.46994026 11.62214397
   7.69678588  4.44374201 11.61115546
   3.84839293  2.22187100 11.69544612
   3.84839293  2.21792648 15.27844698
   2.67134070  2.21892140 15.28398196
   5.02544517  2.21892140 15.28398196
 


--------------------------------------------------------------------------------------------------------


 k-point   1 :   0.0000 0.0000 0.0000  plane waves:   30523
 k-point   2 :   0.1250-0.0000 0.0000  plane waves:   30481
 k-point   3 :   0.0000 0.1250 0.0000  plane waves:   30481
 k-point   4 :   0.2500-0.0000 0.0000  plane waves:   30524
 k-point   5 :   0.0000 0.2500 0.0000  plane waves:   30524
 k-point   6 :   0.3750-0.0000 0.0000  plane waves:   30526
 k-point   7 :   0.0000 0.3750 0.0000  plane waves:   30526
 k-point   8 :   0.5000-0.0000 0.0000  plane waves:   30578
 k-point   9 :   0.0000 0.5000 0.0000  plane waves:   30578
 k-point  10 :   0.2500 0.1250 0.0000  plane waves:   30532
 k-point  11 :   0.1250 0.2500 0.0000  plane waves:   30532
 k-point  12 :   0.3750 0.1250 0.0000  plane waves:   30568
 k-point  13 :   0.2500 0.3750 0.0000  plane waves:   30568
 k-point  14 :  -0.1250 0.2500 0.0000  plane waves:   30568
 k-point  15 :   0.5000 0.1250 0.0000  plane waves:   30587
 k-point  16 :   0.3750 0.5000 0.0000  plane waves:   30587
 k-point  17 :  -0.1250 0.3750 0.0000  plane waves:   30587
 k-point  18 :   0.5000 0.2500 0.0000  plane waves:   30594
 k-point  19 :   0.2500 0.5000 0.0000  plane waves:   30594
 k-point  20 :  -0.3750 0.2500 0.0000  plane waves:   30600
 k-point  21 :  -0.2500 0.3750 0.0000  plane waves:   30600

 maximum and minimum number of plane-waves per node :     30600    30481

 maximum number of plane-waves:     30600
 maximum index in each direction: 
   IXMAX=   14   IYMAX=   14   IZMAX=   42
   IXMIN=  -14   IYMIN=  -14   IZMIN=  -42


 serial   3D FFT for wavefunctions
 parallel 3D FFT for charge:
    minimum data exchange during FFTs selected (reduces bandwidth)


 total amount of memory used by VASP MPI-rank0   159239. kBytes
=======================================================================

   base      :      30000. kBytes
   nonlr-proj:      17216. kBytes
   fftplans  :       3107. kBytes
   grid      :      13732. kBytes
   one-center:        606. kBytes
   wavefun   :      94578. kBytes
 
     INWAV:  cpu time    0.0000: real time    0.0001
 initial charge density was supplied:
 number of electron     410.9999733 magnetization 
 keeping initial charge density in first step


--------------------------------------------------------------------------------------------------------


 Maximum index for non-local projection operator         2682
 Maximum index for augmentation-charges          466 (set IRDMAX)


--------------------------------------------------------------------------------------------------------


 First call to EWALD:  gamma=   0.167
 Maximum number of real-space cells 4x 4x 2
 Maximum number of reciprocal cells 2x 2x 5

    FEWALD:  cpu time    0.0013: real time    0.0013


--------------------------------------- Iteration      1(   1)  ---------------------------------------


    POTLOK:  cpu time    0.0310: real time    0.0313
    SETDIJ:  cpu time    0.0042: real time    0.0044
     EDDAV:  cpu time   12.7390: real time   12.7408
 BZINTS: Fermi energy:   13.902305;  411.000000 electrons
         Band energy: 0.258168E+04;  BLOECHL correction:   -0.025596
       DOS:  cpu time    0.0314: real time    0.0314
    --------------------------------------------
      LOOP:  cpu time   12.8057: real time   12.8079

 eigenvalue-minimisations  : 10584
 total energy-change (2. order) : 0.3768153E+04  (-0.1766614E+05)
 number of electron     410.9999733 magnetization 
 augmentation part      410.9999733 magnetization 

 Free energy of the ion-electron system (eV)
  ---------------------------------------------------
  alpha Z        PSCENC =       839.57350511
  Ewald energy   TEWEN  =    185183.01507734
  -Hartree energ DENC   =   -233227.88819763
  -exchange      EXHF   =         0.00000000
  -V(xc)+E(xc)   XCENC  =      1598.44323846
  PAW double counting   =     48134.95334018   -51847.41294759
  entropy T*S    EENTRO =         0.00000000
  eigenvalues    EBANDS =      2581.68021817
  atomic energy  EATOM  =     50505.78847667
  Solvation  Ediel_sol  =         0.00000000
  ---------------------------------------------------
  free energy    TOTEN  =      3768.15271072 eV

  energy without entropy =     3768.15271072  energy(sigma->0) =     3768.15271072


--------------------------------------------------------------------------------------------------------




--------------------------------------- Iteration      1(   2)  ---------------------------------------


     EDDAV:  cpu time   12.7600: real time   12.7605
 BZINTS: Fermi energy:    3.222524;  411.000000 electrons
         Band energy:-0.780100E+03;  BLOECHL correction:   -0.018733
       DOS:  cpu time    0.0295: real time    0.0295
    --------------------------------------------
      LOOP:  cpu time   12.7894: real time   12.7900

 eigenvalue-minimisations  : 10612
 total energy-change (2. order) :-0.3361780E+04  (-0.3242093E+04)
 number of electron     410.9999733 magnetization 
 augmentation part      410.9999733 magnetization 

 Free energy of the ion-electron system (eV)
  ---------------------------------------------------
  alpha Z        PSCENC =       839.57350511
  Ewald energy   TEWEN  =    185183.01507734
  -Hartree energ DENC   =   -233227.88819763
  -exchange      EXHF   =         0.00000000
  -V(xc)+E(xc)   XCENC  =      1598.44323846
  PAW double counting   =     48134.95334018   -51847.41294759
  entropy T*S    EENTRO =         0.00000000
  eigenvalues    EBANDS =      -780.09951792
  atomic energy  EATOM  =     50505.78847667
  Solvation  Ediel_sol  =         0.00000000
  ---------------------------------------------------
  free energy    TOTEN  =       406.37297463 eV

  energy without entropy =      406.37297463  energy(sigma->0) =      406.37297463


--------------------------------------------------------------------------------------------------------




--------------------------------------- Iteration      1(   3)  ---------------------------------------


     EDDAV:  cpu time   16.8150: real time   16.8154
 BZINTS: Fermi energy:   -0.036570;  411.000000 electrons
         Band energy:-0.129224E+04;  BLOECHL correction:   -0.074420
       DOS:  cpu time    0.0286: real time    0.0286
    --------------------------------------------
      LOOP:  cpu time   16.8436: real time   16.8441

 eigenvalue-minimisations  : 14812
 total energy-change (2. order) :-0.5121380E+03  (-0.4825000E+03)
 number of electron     410.9999733 magnetization 
 augmentation part      410.9999733 magnetization 

 Free energy of the ion-electron system (eV)
  ---------------------------------------------------
  alpha Z        PSCENC =       839.57350511
  Ewald energy   TEWEN  =    185183.01507734
  -Hartree energ DENC   =   -233227.88819763
  -exchange      EXHF   =         0.00000000
  -V(xc)+E(xc)   XCENC  =      1598.44323846
  PAW double counting   =     48134.95334018   -51847.41294759
  entropy T*S    EENTRO =         0.00000000
  eigenvalues    EBANDS =     -1292.23754797
  atomic energy  EATOM  =     50505.78847667
  Solvation  Ediel_sol  =         0.00000000
  ---------------------------------------------------
  free energy    TOTEN  =      -105.76505542 eV

  energy without entropy =     -105.76505542  energy(sigma->0) =     -105.76505542


--------------------------------------------------------------------------------------------------------




--------------------------------------- Iteration      1(   4)  ---------------------------------------


     EDDAV:  cpu time   17.2761: real time   17.2766
 BZINTS: Fermi energy:   -0.178495;  411.000000 electrons
         Band energy:-0.133649E+04;  BLOECHL correction:   -0.074769
       DOS:  cpu time    0.0312: real time    0.0312
    --------------------------------------------
      LOOP:  cpu time   17.3073: real time   17.3078

 eigenvalue-minimisations  : 15316
 total energy-change (2. order) :-0.4425572E+02  (-0.4392786E+02)
 number of electron     410.9999733 magnetization 
 augmentation part      410.9999733 magnetization 

 Free energy of the ion-electron system (eV)
  ---------------------------------------------------
  alpha Z        PSCENC =       839.57350511
  Ewald energy   TEWEN  =    185183.01507734
  -Hartree energ DENC   =   -233227.88819763
  -exchange      EXHF   =         0.00000000
  -V(xc)+E(xc)   XCENC  =      1598.44323846
  PAW double counting   =     48134.95334018   -51847.41294759
  entropy T*S    EENTRO =         0.00000000
  eigenvalues    EBANDS =     -1336.49326543
  atomic energy  EATOM  =     50505.78847667
  Solvation  Ediel_sol  =         0.00000000
  ---------------------------------------------------
  free energy    TOTEN  =      -150.02077289 eV

  energy without entropy =     -150.02077289  energy(sigma->0) =     -150.02077289


--------------------------------------------------------------------------------------------------------




--------------------------------------- Iteration      1(   5)  ---------------------------------------


     EDDAV:  cpu time   15.9825: real time   15.9830
 BZINTS: Fermi energy:   -0.180108;  411.000000 electrons
         Band energy:-0.133724E+04;  BLOECHL correction:   -0.074683
       DOS:  cpu time    0.0316: real time    0.0316
    --------------------------------------------
      LOOP:  cpu time   16.0141: real time   16.0145

 eigenvalue-minimisations  : 13944
 total energy-change (2. order) :-0.7486612E+00  (-0.7447400E+00)
 number of electron     410.9999733 magnetization 
 augmentation part      410.9999733 magnetization 

 Free energy of the ion-electron system (eV)
  ---------------------------------------------------
  alpha Z        PSCENC =       839.57350511
  Ewald energy   TEWEN  =    185183.01507734
  -Hartree energ DENC   =   -233227.88819763
  -exchange      EXHF   =         0.00000000
  -V(xc)+E(xc)   XCENC  =      1598.44323846
  PAW double counting   =     48134.95334018   -51847.41294759
  entropy T*S    EENTRO =         0.00000000
  eigenvalues    EBANDS =     -1337.24192660
  atomic energy  EATOM  =     50505.78847667
  Solvation  Ediel_sol  =         0.00000000
  ---------------------------------------------------
  free energy    TOTEN  =      -150.76943406 eV

  energy without entropy =     -150.76943406  energy(sigma->0) =     -150.76943406


--------------------------------------------------------------------------------------------------------




--------------------------------------- Iteration      1(   6)  ---------------------------------------


    EDDIAG:  cpu time    2.4023: real time    2.4027
  RMM-DIIS:  cpu time    7.0684: real time    7.0686
    ORTHCH:  cpu time    0.4701: real time    0.4701
 BZINTS: Fermi energy:   -0.180129;  411.000000 electrons
         Band energy:-0.133725E+04;  BLOECHL correction:   -0.074684
       DOS:  cpu time    0.0316: real time    0.0316
    --------------------------------------------
      LOOP:  cpu time    9.9724: real time    9.9730

 eigenvalue-minimisations  : 11446
 total energy-change (2. order) :-0.1034015E-01  (-0.1033848E-01)
 number of electron     410.9999733 magnetization 
 augmentation part      410.9999733 magnetization 

 Free energy of the ion-electron system (eV)
  ---------------------------------------------------
  alpha Z        PSCENC =       839.57350511
  Ewald energy   TEWEN  =    185183.01507734
  -Hartree energ DENC   =   -233227.88819763
  -exchange      EXHF   =         0.00000000
  -V(xc)+E(xc)   XCENC  =      1598.44323846
  PAW double counting   =     48134.95334018   -51847.41294759
  entropy T*S    EENTRO =         0.00000000
  eigenvalues    EBANDS =     -1337.25226676
  atomic energy  EATOM  =     50505.78847667
  Solvation  Ediel_sol  =         0.00000000
  ---------------------------------------------------
  free energy    TOTEN  =      -150.77977421 eV

  energy without entropy =     -150.77977421  energy(sigma->0) =     -150.77977421


--------------------------------------------------------------------------------------------------------




--------------------------------------- Iteration      1(   7)  ---------------------------------------


    EDDIAG:  cpu time    2.4024: real time    2.4055
  RMM-DIIS:  cpu time    9.4505: real time    9.4508
    ORTHCH:  cpu time    0.4703: real time    0.4703
 BZINTS: Fermi energy:   -0.180137;  411.000000 electrons
         Band energy:-0.133726E+04;  BLOECHL correction:   -0.074684
       DOS:  cpu time    0.0302: real time    0.0302
    --------------------------------------------
      LOOP:  cpu time   12.3534: real time   12.3568

 eigenvalue-minimisations  : 15535
 total energy-change (2. order) :-0.5088125E-02  (-0.4890438E-02)
 number of electron     410.9999733 magnetization 
 augmentation part      410.9999733 magnetization 

 Free energy of the ion-electron system (eV)
  ---------------------------------------------------
  alpha Z        PSCENC =       839.57350511
  Ewald energy   TEWEN  =    185183.01507734
  -Hartree energ DENC   =   -233227.88819763
  -exchange      EXHF   =         0.00000000
  -V(xc)+E(xc)   XCENC  =      1598.44323846
  PAW double counting   =     48134.95334018   -51847.41294759
  entropy T*S    EENTRO =         0.00000000
  eigenvalues    EBANDS =     -1337.25735488
  atomic energy  EATOM  =     50505.78847667
  Solvation  Ediel_sol  =         0.00000000
  ---------------------------------------------------
  free energy    TOTEN  =      -150.78486234 eV

  energy without entropy =     -150.78486234  energy(sigma->0) =     -150.78486234


--------------------------------------------------------------------------------------------------------




--------------------------------------- Iteration      1(   8)  ---------------------------------------


    EDDIAG:  cpu time    2.4046: real time    2.4048
  RMM-DIIS:  cpu time    9.7102: real time    9.7106
    ORTHCH:  cpu time    0.4712: real time    0.4712
 BZINTS: Fermi energy:   -0.180138;  411.000000 electrons
         Band energy:-0.133726E+04;  BLOECHL correction:   -0.074684
       DOS:  cpu time    0.0302: real time    0.0302
    --------------------------------------------
      LOOP:  cpu time   12.6162: real time   12.6168

 eigenvalue-minimisations  : 16192
 total energy-change (2. order) :-0.6663911E-03  (-0.6446309E-03)
 number of electron     410.9999733 magnetization 
 augmentation part      410.9999733 magnetization 

 Free energy of the ion-electron system (eV)
  ---------------------------------------------------
  alpha Z        PSCENC =       839.57350511
  Ewald energy   TEWEN  =    185183.01507734
  -Hartree energ DENC   =   -233227.88819763
  -exchange      EXHF   =         0.00000000
  -V(xc)+E(xc)   XCENC  =      1598.44323846
  PAW double counting   =     48134.95334018   -51847.41294759
  entropy T*S    EENTRO =         0.00000000
  eigenvalues    EBANDS =     -1337.25802128
  atomic energy  EATOM  =     50505.78847667
  Solvation  Ediel_sol  =         0.00000000
  ---------------------------------------------------
  free energy    TOTEN  =      -150.78552873 eV

  energy without entropy =     -150.78552873  energy(sigma->0) =     -150.78552873


--------------------------------------------------------------------------------------------------------




--------------------------------------- Iteration      1(   9)  ---------------------------------------


    EDDIAG:  cpu time    2.4035: real time    2.4036
  RMM-DIIS:  cpu time    9.8532: real time    9.8535
    ORTHCH:  cpu time    0.4701: real time    0.4701
 BZINTS: Fermi energy:   -0.180138;  411.000000 electrons
         Band energy:-0.133726E+04;  BLOECHL correction:   -0.074684
       DOS:  cpu time    0.0302: real time    0.0302
    --------------------------------------------
      LOOP:  cpu time   12.7570: real time   12.7575

 eigenvalue-minimisations  : 16185
 total energy-change (2. order) :-0.7245637E-04  (-0.7084313E-04)
 number of electron     410.9999733 magnetization 
 augmentation part      410.9999733 magnetization 

 Free energy of the ion-electron system (eV)
  ---------------------------------------------------
  alpha Z        PSCENC =       839.57350511
  Ewald energy   TEWEN  =    185183.01507734
  -Hartree energ DENC   =   -233227.88819763
  -exchange      EXHF   =         0.00000000
  -V(xc)+E(xc)   XCENC  =      1598.44323846
  PAW double counting   =     48134.95334018   -51847.41294759
  entropy T*S    EENTRO =         0.00000000
  eigenvalues    EBANDS =     -1337.25809373
  atomic energy  EATOM  =     50505.78847667
  Solvation  Ediel_sol  =         0.00000000
  ---------------------------------------------------
  free energy    TOTEN  =      -150.78560118 eV

  energy without entropy =     -150.78560118  energy(sigma->0) =     -150.78560118


--------------------------------------------------------------------------------------------------------




--------------------------------------- Iteration      1(  10)  ---------------------------------------


    EDDIAG:  cpu time    2.4042: real time    2.4045
  RMM-DIIS:  cpu time    7.3274: real time    7.3276
    ORTHCH:  cpu time    0.4699: real time    0.4699
 BZINTS: Fermi energy:   -0.180138;  411.000000 electrons
         Band energy:-0.133726E+04;  BLOECHL correction:   -0.074684
       DOS:  cpu time    0.0302: real time    0.0302
    --------------------------------------------
      LOOP:  cpu time   10.2317: real time   10.2322

 eigenvalue-minimisations  : 11332
 total energy-change (2. order) :-0.1309719E-04  (-0.1311901E-04)
 number of electron     410.9999733 magnetization 
 augmentation part      410.9999733 magnetization 

 Free energy of the ion-electron system (eV)
  ---------------------------------------------------
  alpha Z        PSCENC =       839.57350511
  Ewald energy   TEWEN  =    185183.01507734
  -Hartree energ DENC   =   -233227.88819763
  -exchange      EXHF   =         0.00000000
  -V(xc)+E(xc)   XCENC  =      1598.44323846
  PAW double counting   =     48134.95334018   -51847.41294759
  entropy T*S    EENTRO =         0.00000000
  eigenvalues    EBANDS =     -1337.25810683
  atomic energy  EATOM  =     50505.78847667
  Solvation  Ediel_sol  =         0.00000000
  ---------------------------------------------------
  free energy    TOTEN  =      -150.78561428 eV

  energy without entropy =     -150.78561428  energy(sigma->0) =     -150.78561428


--------------------------------------------------------------------------------------------------------




--------------------------------------- Iteration      1(  11)  ---------------------------------------


    EDDIAG:  cpu time    2.4037: real time    2.4039
  RMM-DIIS:  cpu time    5.3972: real time    5.3974
    ORTHCH:  cpu time    0.4709: real time    0.4709
 BZINTS: Fermi energy:   -0.180138;  411.000000 electrons
         Band energy:-0.133726E+04;  BLOECHL correction:   -0.074684
       DOS:  cpu time    0.0308: real time    0.0308
    --------------------------------------------
      LOOP:  cpu time    8.3026: real time    8.3030

 eigenvalue-minimisations  :  7477
 total energy-change (2. order) :-0.1702690E-05  (-0.1709608E-05)
 number of electron     410.9999733 magnetization 
 augmentation part      410.9999733 magnetization 

 Free energy of the ion-electron system (eV)
  ---------------------------------------------------
  alpha Z        PSCENC =       839.57350511
  Ewald energy   TEWEN  =    185183.01507734
  -Hartree energ DENC   =   -233227.88819763
  -exchange      EXHF   =         0.00000000
  -V(xc)+E(xc)   XCENC  =      1598.44323846
  PAW double counting   =     48134.95334018   -51847.41294759
  entropy T*S    EENTRO =         0.00000000
  eigenvalues    EBANDS =     -1337.25810853
  atomic energy  EATOM  =     50505.78847667
  Solvation  Ediel_sol  =         0.00000000
  ---------------------------------------------------
  free energy    TOTEN  =      -150.78561598 eV

  energy without entropy =     -150.78561598  energy(sigma->0) =     -150.78561598


--------------------------------------------------------------------------------------------------------




 average (electrostatic) potential at core
  the test charge radii are     0.9430  1.1199  0.6991  0.7215
  (the norm of the test charge is              1.0000)
       1 -71.1000       2 -71.0966       3 -71.0965       4 -71.0966       5 -71.1095
       6 -71.0962       7 -71.0965       8 -71.0962       9 -71.1077      10 -71.3807
      11 -71.3665      12 -71.3805      13 -71.3665      14 -71.3661      15 -71.3754
      16 -71.3810      17 -71.3751      18 -71.3753      19 -71.3700      20 -71.3200
      21 -71.3198      22 -71.3804      23 -71.3210      24 -71.3800      25 -71.3693
      26 -71.3690      27 -71.3792      28 -71.1057      29 -71.0739      30 -71.0740
      31 -71.0699      32 -71.0696      33 -71.0735      34 -71.0732      35 -71.1077
      36 -80.3531      37 -58.9992      38 -78.0032      39 -78.0032
 
 
 
 E-fermi :  -0.1801     XC(G=0):  -5.6890     alpha+bet : -5.0220

 Fermi energy:        -0.1801379643

 k-point     1 :       0.0000    0.0000    0.0000
  band No.  band energies     occupation 
      1     -24.4622      2.00000
      2     -23.4464      2.00000
      3      -9.1021      2.00000
      4      -8.9426      2.00000
      5      -7.9713      2.00000
      6      -7.9431      2.00000
      7      -7.9051      2.00000
      8      -7.6209      2.00000
      9      -6.0203      2.00000
     10      -5.9741      2.00000
     11      -5.9737      2.00000
     12      -5.9561      2.00000
     13      -5.9491      2.00000
     14      -5.9488      2.00000
     15      -5.8684      2.00000
     16      -5.2264      2.00000
     17      -5.2257      2.00000
     18      -5.1941      2.00000
     19      -5.1802      2.00000
     20      -5.1634      2.00000
     21      -5.1632      2.00000
     22      -5.0327      2.00000
     23      -4.5663      2.00000
     24      -4.5650      2.00000
     25      -4.4826      2.00000
     26      -4.4741      2.00000
     27      -4.4675      2.00000
     28      -4.3990      2.00000
     29      -4.3812      2.00000
     30      -4.3786      2.00000
     31      -4.1925      2.00000
     32      -4.1921      2.00000
     33      -4.1918      2.00000
     34      -4.1716      2.00000
     35      -4.1716      2.00000
     36      -4.1615      2.00000
     37      -4.0621      2.00000
     38      -4.0611      2.00000
     39      -4.0135      2.00000
     40      -4.0133      2.00000
     41      -4.0026      2.00000
     42      -3.9996      2.00000
     43      -3.9994      2.00000
     44      -3.9993      2.00000
     45      -3.9695      2.00000
     46      -3.9530      2.00000
     47      -3.9509      2.00000
     48      -3.9419      2.00000
     49      -3.9048      2.00000
     50      -3.9042      2.00000
     51      -3.8575      2.00000
     52      -3.8575      2.00000
     53      -3.7489      2.00000
     54      -3.7471      2.00000
     55      -3.7129      2.00000
     56      -3.7101      2.00000
     57      -3.6797      2.00000
     58      -3.6793      2.00000
     59      -3.6753      2.00000
     60      -3.6583      2.00000
     61      -3.6159      2.00000
     62      -3.6076      2.00000
     63      -3.3511      2.00000
     64      -3.3488      2.00000
     65      -3.3237      2.00000
     66      -3.3237      2.00000
     67      -3.3235      2.00000
     68      -3.3082      2.00000
     69      -3.2315      2.00000
     70      -3.2315      2.00000
     71      -3.1992      2.00000
     72      -3.1992      2.00000
     73      -3.1946      2.00000
     74      -3.1808      2.00000
     75      -3.1800      2.00000
     76      -3.1677      2.00000
     77      -3.1676      2.00000
     78      -3.1658      2.00000
     79      -3.1401      2.00000
     80      -3.1011      2.00000
     81      -3.0663      2.00000
     82      -3.0663      2.00000
     83      -3.0154      2.00000
     84      -3.0154      2.00000
     85      -2.9739      2.00000
     86      -2.9710      2.00000
     87      -2.9708      2.00000
     88      -2.9592      2.00000
     89      -2.9589      2.00000
     90      -2.9572      2.00000
     91      -2.8900      2.00000
     92      -2.8868      2.00000
     93      -2.8867      2.00000
     94      -2.8739      2.00000
     95      -2.8737      2.00000
     96      -2.8672      2.00000
     97      -2.8429      2.00000
     98      -2.8428      2.00000
     99      -2.8229      2.00000
    100      -2.8228      2.00000
[...]
  0.000   0.000   0.000   0.000   0.000   0.000   0.000   0.000   0.000   0.000   1.000   0.000   0.000   0.000   0.000   0.000
  0.000   0.000   0.000   0.000   0.000   0.000   0.000   0.000   0.000   0.000   0.000   0.000   0.000   0.000   0.000   0.000
  0.000   0.000   0.000   0.000   0.000   0.000   0.000   0.000   0.000   0.000   0.000   0.000   0.000   0.000   0.000   0.000
  0.000   0.000   0.000   0.000   0.000   0.000   0.000   0.000   0.000   0.000   0.000   0.000   0.000   0.000   0.000   0.000
  0.000   0.000   0.000   0.000   0.000   0.000   0.000   0.000   0.000   0.000   0.000   0.000   0.000   0.000   0.000   0.000
  0.000   0.000   0.000   0.000   0.000   0.000   0.000   0.000   0.000   0.000   0.000   0.000   0.000   0.000   0.000   0.000
  0.000   0.000   0.000   0.000   0.000   0.000   0.000   0.000   0.000   0.000   0.000   0.000   0.000   0.000   0.000   0.000
  0.000   0.000   0.000   0.000   0.000   0.000   0.000   0.000   0.000   0.000   0.000   0.000   0.000   0.000   0.000   0.000


------------------------ aborting loop because EDIFF is reached ----------------------------------------





 total charge

# of ion       s       p       d       tot
------------------------------------------
    1        0.447   0.287   9.188   9.922
    2        0.450   0.284   9.189   9.922
    3        0.450   0.284   9.189   9.922
    4        0.450   0.284   9.189   9.923
    5        0.445   0.287   9.186   9.918
    6        0.450   0.284   9.189   9.923
    7        0.450   0.284   9.189   9.923
    8        0.450   0.284   9.189   9.923
    9        0.449   0.283   9.187   9.919
   10        0.441   0.374   9.177   9.993
   11        0.443   0.369   9.181   9.993
   12        0.441   0.374   9.177   9.993
   13        0.443   0.369   9.181   9.993
   14        0.443   0.369   9.181   9.993
   15        0.439   0.371   9.181   9.991
   16        0.441   0.374   9.177   9.993
   17        0.439   0.371   9.181   9.991
   18        0.439   0.371   9.181   9.991
   19        0.444   0.377   9.184  10.004
   20        0.439   0.371   9.184   9.994
   21        0.439   0.371   9.184   9.994
   22        0.441   0.375   9.179   9.994
   23        0.439   0.371   9.184   9.994
   24        0.441   0.375   9.179   9.994
   25        0.445   0.376   9.184  10.005
   26        0.445   0.376   9.184  10.005
   27        0.441   0.375   9.179   9.994
   28        0.454   0.291   9.194   9.939
   29        0.452   0.293   9.192   9.938
   30        0.452   0.293   9.192   9.938
   31        0.452   0.292   9.193   9.936
   32        0.452   0.292   9.193   9.936
   33        0.453   0.293   9.192   9.938
   34        0.453   0.293   9.192   9.938
   35        0.451   0.294   9.193   9.938
   36        0.505   0.378   8.579   9.461
   37        0.932   1.798   0.000   2.730
   38        1.607   3.529   0.000   5.136
   39        1.607   3.529   0.000   5.136
--------------------------------------------------
tot         20.252  20.848 330.068 371.168
 
    CHARGE:  cpu time    0.4803: real time    0.4805
    FORLOC:  cpu time    0.0087: real time    0.0087
    FORNL :  cpu time    2.5455: real time    2.5456
    STRESS:  cpu time    7.6200: real time    7.6204
    FORCOR:  cpu time    0.0314: real time    0.0315
    FORHAR:  cpu time    0.0132: real time    0.0132
    OFIELD:  cpu time    0.0001: real time    0.0001

  FORCE on cell =-STRESS in cart. coord.  units (eV):
  Direction    XX          YY          ZZ          XY          YZ          ZX
  --------------------------------------------------------------------------------------
  Alpha Z   839.57351   839.57351   839.57351
  Ewald  211815.19817211013.10615************     0.00039     0.11817     0.00017
  Hartree224785.11649224404.29133************     0.00004     0.11963     0.00007
  E(xc)   -2372.78649 -2374.89287 -2379.61885    -0.00029    -0.00018    -0.00003
  Local  ************************448884.07707     0.02033    -0.24695    -0.00073
  n-local  -811.17679  -805.25116  -822.93140     1.74954    -0.00521     0.16510
  augment  3392.23682  3394.95265  3412.09814    -0.01834     0.00197     0.00030
  Kinetic  3545.08004  3610.34132  3635.84358     0.87827     0.00545    -0.13878
  Fock        0.00000     0.00000     0.00000     0.00000     0.00000     0.00000
  -------------------------------------------------------------------------------------
  Total       0.48814     0.48778     6.14781    -0.00000    -0.00711     0.00000
  in kB       0.64971     0.64922     8.18262    -0.00000    -0.00947     0.00000
  external pressure =        3.16 kB  Pullay stress =        0.00 kB


 VOLUME and BASIS-vectors are now :
 -----------------------------------------------------------------------------
  energy-cutoff  :      500.00
  volume of cell :     1203.76
      direct lattice vectors                 reciprocal lattice vectors
     7.696786404  0.000000000  0.000000000     0.129924354 -0.075011849  0.000000000
     3.848392758  6.665612809  0.000000000     0.000000000  0.150023716  0.000000000
     0.000000000  0.000000000 23.463299730     0.000000000  0.000000000  0.042619751

  length of vectors
     7.696786404  7.696786404 23.463299730     0.150023716  0.150023716  0.042619751


 FORCES acting on ions
    electron-ion (+dipol)            ewald-force                    non-local-force                 convergence-correction
 -----------------------------------------------------------------------------------------------
   -.417E-04 0.316E-01 0.374E+04   0.579E-04 -.157E-01 -.374E+04   0.234E-09 -.351E-02 -.232E+01   -.259E-03 -.122E-01 -.991E+00
   -.468E+00 0.420E-01 0.374E+04   0.395E+00 0.263E+00 -.374E+04   -.133E-01 -.983E-01 -.201E+01   0.845E-01 -.202E+00 -.785E+00
   0.468E+00 0.420E-01 0.374E+04   -.395E+00 0.263E+00 -.374E+04   0.133E-01 -.983E-01 -.201E+01   -.837E-01 -.200E+00 -.784E+00
   -.224E+00 -.413E+00 0.374E+04   0.438E+00 0.203E+00 -.374E+04   -.871E-01 0.387E-01 -.201E+01   -.125E+00 0.166E+00 -.763E+00
   -.630E-04 -.169E-02 0.374E+04   0.116E-03 0.219E-03 -.373E+04   0.183E-09 -.275E-02 -.214E+01   0.122E-01 0.460E-02 -.805E+00
   0.224E+00 -.413E+00 0.374E+04   -.438E+00 0.203E+00 -.374E+04   0.871E-01 0.387E-01 -.201E+01   0.123E+00 0.167E+00 -.762E+00
   0.249E+00 0.368E+00 0.374E+04   0.438E-01 -.465E+00 -.374E+04   -.784E-01 0.593E-01 -.201E+01   -.207E+00 0.376E-01 -.773E+00
   -.249E+00 0.368E+00 0.374E+04   -.441E-01 -.465E+00 -.374E+04   0.784E-01 0.593E-01 -.201E+01   0.210E+00 0.362E-01 -.773E+00
   -.144E-03 -.248E-01 0.374E+04   0.263E-03 0.155E-01 -.374E+04   -.318E-09 0.478E-02 -.220E+01   -.133E-01 0.400E-02 -.763E+00
   -.251E+01 -.130E+01 0.134E+04   0.244E+01 0.129E+01 -.134E+04   -.172E-01 -.110E-01 -.829E+00   0.114E+00 0.444E-01 -.965E-01
   -.910E-04 -.320E+01 0.133E+04   0.191E-03 0.314E+01 -.133E+04   0.328E-08 -.492E-01 -.876E+00   0.113E-01 0.899E-01 0.397E-01
   0.251E+01 -.130E+01 0.134E+04   -.244E+01 0.129E+01 -.134E+04   0.172E-01 -.110E-01 -.829E+00   -.116E+00 0.464E-01 -.969E-01
   -.289E+01 0.157E+01 0.133E+04   0.283E+01 -.155E+01 -.133E+04   -.369E-01 0.174E-01 -.876E+00   0.973E-01 -.288E-01 0.491E-01
   0.289E+01 0.157E+01 0.133E+04   -.283E+01 -.155E+01 -.133E+04   0.369E-01 0.174E-01 -.876E+00   -.731E-01 -.293E-01 0.490E-01
   -.140E-03 -.171E+01 0.133E+04   0.298E-03 0.148E+01 -.133E+04   -.340E-08 0.511E-01 -.719E+00   -.380E-02 0.183E+00 -.146E+00
   -.878E-04 0.285E+01 0.134E+04   0.186E-03 -.278E+01 -.134E+04   -.145E-08 0.217E-01 -.819E+00   -.161E-04 -.125E+00 -.969E-01
   -.139E+01 0.757E+00 0.133E+04   0.121E+01 -.656E+00 -.133E+04   0.456E-01 -.241E-01 -.697E+00   0.144E+00 -.817E-01 -.159E+00
   0.139E+01 0.757E+00 0.133E+04   -.121E+01 -.656E+00 -.133E+04   -.456E-01 -.241E-01 -.697E+00   -.143E+00 -.792E-01 -.160E+00
   -.595E-04 -.122E+01 -.108E+04   0.686E-04 0.105E+01 0.108E+04   0.287E-08 -.432E-01 0.581E+00   0.955E-02 0.202E+00 0.190E-01
   -.276E+02 -.153E+02 -.111E+04   0.271E+02 0.150E+02 0.111E+04   0.820E-01 0.470E-01 0.380E+00   0.401E+00 0.224E+00 0.112E+00
   0.276E+02 -.153E+02 -.111E+04   -.271E+02 0.150E+02 0.111E+04   -.820E-01 0.470E-01 0.380E+00   -.378E+00 0.227E+00 0.112E+00
   -.123E+02 0.625E+01 -.109E+04   0.120E+02 -.604E+01 0.109E+04   0.211E+00 -.133E+00 0.748E+00   0.138E+00 -.688E-01 0.457E-01
   -.801E-04 0.309E+02 -.111E+04   0.149E-03 -.304E+02 0.111E+04   0.691E-08 -.104E+00 0.387E+00   0.119E-01 -.427E+00 0.116E+00
   0.123E+02 0.625E+01 -.109E+04   -.120E+02 -.604E+01 0.109E+04   -.211E+00 -.133E+00 0.748E+00   -.141E+00 -.681E-01 0.457E-01
   0.151E+01 0.120E+01 -.108E+04   -.138E+01 -.112E+01 0.108E+04   0.431E-01 0.214E-01 0.561E+00   -.160E+00 -.993E-01 0.246E-01
   -.151E+01 0.120E+01 -.108E+04   0.138E+01 -.112E+01 0.108E+04   -.431E-01 0.214E-01 0.561E+00   0.183E+00 -.101E+00 0.251E-01
   -.131E-03 -.140E+02 -.109E+04   0.246E-03 0.135E+02 0.109E+04   -.168E-07 0.252E+00 0.753E+00   -.282E-02 0.156E+00 0.510E-01
   -.211E-04 0.500E+01 -.350E+04   0.400E-04 -.498E+01 0.350E+04   0.142E-09 -.213E-02 0.220E+01   0.128E-03 -.186E-01 0.912E+00
   -.174E+02 -.221E+02 -.349E+04   0.174E+02 0.219E+02 0.349E+04   -.570E-01 0.167E+00 0.204E+01   0.448E-01 0.309E-01 0.753E+00
   0.174E+02 -.221E+02 -.349E+04   -.174E+02 0.219E+02 0.349E+04   0.570E-01 0.167E+00 0.204E+01   -.444E-01 0.335E-01 0.754E+00
   -.307E+02 -.920E+00 -.348E+04   0.304E+02 0.102E+01 0.348E+04   0.153E+00 -.120E+00 0.219E+01   0.691E-01 0.214E-01 0.729E+00
   0.307E+02 -.920E+00 -.348E+04   -.304E+02 0.102E+01 0.348E+04   -.153E+00 -.120E+00 0.219E+01   -.704E-01 0.229E-01 0.728E+00
   -.160E+02 0.230E+02 -.349E+04   0.158E+02 -.229E+02 0.349E+04   0.152E+00 -.481E-01 0.204E+01   0.195E-01 -.535E-01 0.746E+00
   0.160E+02 0.230E+02 -.349E+04   -.158E+02 -.229E+02 0.349E+04   -.152E+00 -.481E-01 0.204E+01   -.158E-01 -.545E-01 0.745E+00
   -.149E-03 -.492E+01 -.350E+04   0.257E-03 0.492E+01 0.350E+04   -.428E-09 0.643E-02 0.244E+01   -.135E-01 0.416E-02 0.721E+00
   -.601E-04 -.994E-01 -.315E+04   0.120E-03 0.923E-01 0.315E+04   -.116E-09 0.174E-02 0.279E+01   0.391E-02 0.742E-02 0.611E+00
   -.191E-04 0.412E+00 -.117E+04   0.573E-06 -.412E+00 0.117E+04   -.464E-09 0.696E-02 0.129E-01   0.471E-04 -.102E-02 -.232E-01
   0.257E+03 -.160E+00 -.176E+04   -.321E+03 0.220E+00 0.176E+04   0.637E+02 -.533E-01 -.215E+00   0.319E-01 -.274E-02 -.310E-01
   -.257E+03 -.160E+00 -.176E+04   0.321E+03 0.220E+00 0.176E+04   -.637E+02 -.533E-01 -.215E+00   -.319E-01 -.270E-02 -.311E-01
 -----------------------------------------------------------------------------------------------
   0.133E-04 0.991E-01 0.184E+01   0.114E-12 0.760E-13 0.109E-10   0.897E-08 -.135E+00 -.126E+01   0.860E-01 0.517E-01 -.651E+00
 
 
 POSITION                                       TOTAL-FORCE (eV/Angst)
 -----------------------------------------------------------------------------------
      0.00000      0.00000      5.37156         0.000000     -0.000167      0.122196
      2.56560      0.00000      5.37156        -0.002259      0.005145      0.080263
      5.13119      0.00000      5.37156         0.002259      0.005145      0.080263
      1.28280      2.22187      5.37156         0.003298     -0.005282      0.079991
      3.84839      2.22187      5.37156         0.000000     -0.000035      0.072930
      6.41399      2.22187      5.37156        -0.003298     -0.005282      0.079991
      2.56560      4.44374      5.37156         0.005843     -0.001319      0.080144
      5.13119      4.44374      5.37156        -0.005843     -0.001319      0.080144
      7.69679      4.44374      5.37156         0.000000     -0.001007      0.072549
      1.28280      0.74062      7.46636         0.030443      0.018987     -0.107395
      3.84839      0.74062      7.46636         0.000000     -0.017443     -0.117863
      6.41399      0.74062      7.46636        -0.030443      0.018987     -0.107395
      2.56560      2.96249      7.46636        -0.016251      0.008920     -0.117599
      5.13119      2.96249      7.46636         0.016251      0.008920     -0.117599
      7.69679      2.96249      7.46636        -0.000000      0.005289     -0.071769
      3.84839      5.18437      7.46636         0.000000     -0.037135     -0.107211
      6.41399      5.18437      7.46636         0.005641     -0.004825     -0.070594
      8.97958      5.18437      7.46636        -0.005641     -0.004825     -0.070594
      7.69679      1.48223      9.53996         0.000000     -0.004693      0.006021
      2.55948      1.47772      9.53985        -0.016331     -0.010099     -0.002755
      5.13731      1.47772      9.53985         0.016331     -0.010099     -0.002755
      8.98047      3.70261      9.54732        -0.011444      0.005902      0.005605
      3.84839      3.71018      9.53985        -0.000000      0.017712     -0.001840
      6.41310      3.70261      9.54732         0.011444      0.005902      0.005605
     10.26153      5.92450      9.53996         0.003314      0.002858      0.000931
      5.13204      5.92450      9.53996        -0.003314      0.002858      0.000931
      7.69679      5.92601      9.54732         0.000000     -0.013268      0.003948
      0.00000      0.00000     11.61018         0.000000     -0.003684      0.002521
      6.39795      6.64100     11.62214         0.004159     -0.004802      0.019915
      8.99562      6.64100     11.62214        -0.004159     -0.004802      0.019915
      8.95025      2.22029     11.62214        -0.000464      0.002516      0.027956
      6.44333      2.22029     11.62214         0.000464      0.002516      0.027956
     10.24908      4.46994     11.62214         0.000501      0.001033      0.020452
      5.14449      4.46994     11.62214        -0.000501      0.001033      0.020452
      7.69679      4.44374     11.61116        -0.000000      0.002371     -0.000107
      3.84839      2.22187     11.69545        -0.000000      0.001621     -0.009894
      3.84839      2.21793     15.27845        -0.000000      0.005493     -0.000949
      2.67134      2.21892     15.28398         0.005486      0.003440     -0.002180
      5.02545      2.21892     15.28398        -0.005486      0.003440     -0.002180
 -----------------------------------------------------------------------------------
    total drift:                                0.086033      0.016135     -0.069998


--------------------------------------------------------------------------------------------------------



  FREE ENERGIE OF THE ION-ELECTRON SYSTEM (eV)
  ---------------------------------------------------
  free  energy   TOTEN  =      -150.78561598 eV

  energy  without entropy=     -150.78561598  energy(sigma->0) =     -150.78561598
 


--------------------------------------------------------------------------------------------------------


    POTLOK:  cpu time    0.0324: real time    0.0324


--------------------------------------------------------------------------------------------------------


 stress matrix after NEB project (eV)
      0.48814     -0.00000      0.00000
     -0.00000      0.48778     -0.00711
      0.00000     -0.00711      6.14781
  FORCES: max atom, RMS     0.006832    0.001786
  FORCE total and by dimension    0.011155    0.005493
  Stress total and by dimension    6.186424    6.147807
     LOOP+:  cpu time  152.8078: real time  152.8226
 -----------------------------------------------------------------------------
|                                                                             |
|           W    W    AA    RRRRR   N    N  II  N    N   GGGG   !!!           |
|           W    W   A  A   R    R  NN   N  II  NN   N  G    G  !!!           |
|           W    W  A    A  R    R  N N  N  II  N N  N  G       !!!           |
|           W WW W  AAAAAA  RRRRR   N  N N  II  N  N N  G  GGG   !            |
|           WW  WW  A    A  R   R   N   NN  II  N   NN  G    G                |
|           W    W  A    A  R    R  N    N  II  N    N   GGGG   !!!           |
|                                                                             |
|     Tetrahedron method does not include variations of the Fermi             |
|     occupations, so forces and stress will be inaccurate. We suggest        |
|     using a different smearing scheme ISMEAR = 1 or 2 for metals in         |
|     relaxations.                                                            |
|                                                                             |
 -----------------------------------------------------------------------------

    4ORBIT:  cpu time    0.0000: real time    0.0000



 total charge

# of ion       s       p       d       tot
------------------------------------------
    1        0.447   0.287   9.188   9.922
    2        0.450   0.284   9.189   9.922
    3        0.450   0.284   9.189   9.922
    4        0.450   0.284   9.189   9.923
    5        0.445   0.287   9.186   9.918
    6        0.450   0.284   9.189   9.923
    7        0.450   0.284   9.189   9.923
    8        0.450   0.284   9.189   9.923
    9        0.449   0.283   9.187   9.919
   10        0.441   0.374   9.177   9.993
   11        0.443   0.369   9.181   9.993
   12        0.441   0.374   9.177   9.993
   13        0.443   0.369   9.181   9.993
   14        0.443   0.369   9.181   9.993
   15        0.439   0.371   9.181   9.991
   16        0.441   0.374   9.177   9.993
   17        0.439   0.371   9.181   9.991
   18        0.439   0.371   9.181   9.991
   19        0.444   0.377   9.184  10.004
   20        0.439   0.371   9.184   9.994
   21        0.439   0.371   9.184   9.994
   22        0.441   0.375   9.179   9.994
   23        0.439   0.371   9.184   9.994
   24        0.441   0.375   9.179   9.994
   25        0.445   0.376   9.184  10.005
   26        0.445   0.376   9.184  10.005
   27        0.441   0.375   9.179   9.994
   28        0.454   0.291   9.194   9.939
   29        0.452   0.293   9.192   9.938
   30        0.452   0.293   9.192   9.938
   31        0.452   0.292   9.193   9.936
   32        0.452   0.292   9.193   9.936
   33        0.453   0.293   9.192   9.938
   34        0.453   0.293   9.192   9.938
   35        0.451   0.294   9.193   9.938
   36        0.505   0.378   8.579   9.461
   37        0.932   1.798   0.000   2.730
   38        1.607   3.529   0.000   5.136
   39        1.607   3.529   0.000   5.136
--------------------------------------------------
tot         20.252  20.848 330.068 371.168
 
 BZINTS: Fermi energy:   -0.180138;  411.000000 electrons
         Band energy:-0.133726E+04;  BLOECHL correction:   -0.074684

 total amount of memory used by VASP MPI-rank0   159239. kBytes
=======================================================================

   base      :      30000. kBytes
   nonlr-proj:      17216. kBytes
   fftplans  :       3107. kBytes
   grid      :      13732. kBytes
   one-center:        606. kBytes
   wavefun   :      94578. kBytes
 
  
  
 General timing and accounting informations for this job:
 ========================================================
  
                  Total CPU time used (sec):      164.689
                            User time (sec):      158.593
                          System time (sec):        6.095
                         Elapsed time (sec):      165.196
  
                   Maximum memory used (kb):      416136.
                   Average memory used (kb):          N/A
  
                          Minor page faults:        90420
                          Major page faults:            0
                 Voluntary context switches:         5652
