 vasp.6.2.0 18Jan21 (build Jun 12 2021 23:27:24) complex                        
  
 executed on             LinuxIFC date 2022.05.27  05:47:51
 running on   28 total cores
 distrk:  each k-point on   28 cores,    1 groups
 distr:  one band on NCORE=   1 cores,   28 groups


--------------------------------------------------------------------------------------------------------


 INCAR:
   ISMEAR = -5
   SIGMA = 0.1
   ISPIN = 1
   EDIFF = 1.d-5
   EDIFFG = -0.01
   NSW = 0
   NELM = 150
   ENCUT = 500
   ISIF = 2
   IBRION = 2
   LREAL = Auto
   ALGO = Fast
   ICHARG = 11
   LORBIT = 10
   LCHARG = .F.
   LWAVE = .F.

 POTCAR:    PAW_PBE Ag 02Apr2005                  
 POTCAR:    PAW_PBE Ta 17Jan2003                  
 POTCAR:    PAW_PBE C 08Apr2002                   
 POTCAR:    PAW_PBE O 08Apr2002                   
 -----------------------------------------------------------------------------
|                                                                             |
|           W    W    AA    RRRRR   N    N  II  N    N   GGGG   !!!           |
|           W    W   A  A   R    R  NN   N  II  NN   N  G    G  !!!           |
|           W    W  A    A  R    R  N N  N  II  N N  N  G       !!!           |
|           W WW W  AAAAAA  RRRRR   N  N N  II  N  N N  G  GGG   !            |
|           WW  WW  A    A  R   R   N   NN  II  N   NN  G    G                |
|           W    W  A    A  R    R  N    N  II  N    N   GGGG   !!!           |
|                                                                             |
|     For optimal performance we recommend to set                             |
|       NCORE = 2 up to number-of-cores-per-socket                            |
|     NCORE specifies how many cores store one orbital (NPAR=cpu/NCORE).      |
|     This setting can greatly improve the performance of VASP for DFT.       |
|     The default, NCORE=1 might be grossly inefficient on modern             |
|     multi-core architectures or massively parallel machines. Do your        |
|     own testing! More info at https://www.vasp.at/wiki/index.php/NCORE      |
|     Unfortunately you need to use the default for GW and RPA                |
|     calculations (for HF NCORE is supported but not extensively tested      |
|     yet).                                                                   |
|                                                                             |
 -----------------------------------------------------------------------------

 POTCAR:    PAW_PBE Ag 02Apr2005                  
   VRHFIN =Ag : s1 d10                                                                              
   LEXCH  = PE                                                                                      
   EATOM  =  1037.2675 eV,   76.2370 Ry                                                             
                                                                                                    
   TITEL  = PAW_PBE Ag 02Apr2005                                                                    
   LULTRA =        F    use ultrasoft PP ?                                                          
   IUNSCR =        1    unscreen: 0-lin 1-nonlin 2-no                                               
   RPACOR =    2.000    partial core radius                                                         
   POMASS =  107.868; ZVAL   =   11.000    mass and valenz                                          
   RCORE  =    2.500    outmost cutoff radius                                                       
   RWIGS  =    2.840; RWIGS  =    1.503    wigner-seitz radius (au A)                               
   ENMAX  =  249.844; ENMIN  =  187.383 eV                                                          
   ICORE  =        3    local potential                                                             
   LCOR   =        T    correct aug charges                                                         
   LPAW   =        T    paw PP                                                                      
   EAUG   =  412.496                                                                                
   DEXC   =    0.000                                                                                
   RMAX   =    2.560    core radius for proj-oper                                                   
   RAUG   =    1.300    factor for augmentation sphere                                              
   RDEP   =    2.576    radius for radial grids                                                     
   RDEPT  =    2.072    core radius for aug-charge                                                  
                                                                                                    
   Atomic configuration                                                                             
   12 entries                                                                                       
     n  l   j            E        occ.                                                              
     1  0  0.50    -25324.9161   2.0000                                                             
     2  0  0.50     -3728.5341   2.0000                                                             
     2  1  1.50     -3344.0404   6.0000                                                             
     3  0  0.50      -683.5581   2.0000                                                             
     3  1  1.50      -557.3225   6.0000                                                             
     3  2  2.50      -358.3853  10.0000                                                             
     4  0  0.50       -95.0341   2.0000                                                             
     4  1  1.50       -58.5511   6.0000                                                             
     4  2  2.50        -7.4440  10.0000                                                             
     5  0  0.50        -4.4045   1.0000                                                             
     5  1  0.50        -1.3606   0.0000                                                             
     4  3  2.50        -1.3606   0.0000                                                             
   Description                                                                                      
     l       E           TYP  RCUT    TYP  RCUT                                                     
     2     -7.4439781     23  2.400                                                                 
     2     -8.8045607     23  2.400                                                                 
     0     -4.4044681     23  2.400                                                                 
     0      1.9520038     23  2.400                                                                 
     1     -1.3605826     23  2.500                                                                 
     1     27.2116520     23  2.500                                                                 
     3     -4.0817478     23  2.400                                                                 
  local pseudopotential read in
  partial core-charges read in
  partial kinetic energy density read in
  atomic valenz-charges read in
  non local Contribution for L=           2  read in
    real space projection operators read in
  non local Contribution for L=           2  read in
    real space projection operators read in
  non local Contribution for L=           0  read in
    real space projection operators read in
  non local Contribution for L=           0  read in
    real space projection operators read in
  non local Contribution for L=           1  read in
    real space projection operators read in
  non local Contribution for L=           1  read in
    real space projection operators read in
    PAW grid and wavefunctions read in
 
   number of l-projection  operators is LMAX  =           6
   number of lm-projection operators is LMMAX =          18
 
 POTCAR:    PAW_PBE Ta 17Jan2003                  
   VRHFIN =Ta:  6s5d                                                                                
   LEXCH  = PE                                                                                      
   EATOM  =   130.6506 eV,    9.6025 Ry                                                             
                                                                                                    
   TITEL  = PAW_PBE Ta 17Jan2003                                                                    
   LULTRA =        F    use ultrasoft PP ?                                                          
   IUNSCR =        1    unscreen: 0-lin 1-nonlin 2-no                                               
   RPACOR =    2.330    partial core radius                                                         
   POMASS =  180.948; ZVAL   =    5.000    mass and valenz                                          
   RCORE  =    2.900    outmost cutoff radius                                                       
   RWIGS  =    2.840; RWIGS  =    1.503    wigner-seitz radius (au A)                               
   ENMAX  =  223.667; ENMIN  =  167.750 eV                                                          
   RCLOC  =    2.205    cutoff for local pot                                                        
   LCOR   =        T    correct aug charges                                                         
   LPAW   =        T    paw PP                                                                      
   EAUG   =  332.075                                                                                
   DEXC   =    0.000                                                                                
   RMAX   =    2.970    core radius for proj-oper                                                   
   RAUG   =    1.300    factor for augmentation sphere                                              
   RDEP   =    3.060    radius for radial grids                                                     
   RDEPT  =    2.354    core radius for aug-charge                                                  
                                                                                                    
   Atomic configuration                                                                             
   16 entries                                                                                       
     n  l   j            E        occ.                                                              
     1  0  0.50    -67341.2807   2.0000                                                             
     2  0  0.50    -11566.9376   2.0000                                                             
     2  1  1.50    -10134.1182   6.0000                                                             
     3  0  0.50     -2648.5620   2.0000                                                             
     3  1  1.50     -2222.6012   6.0000                                                             
     3  2  2.50     -1726.3120  10.0000                                                             
     4  0  0.50      -538.6961   2.0000                                                             
     4  1  1.50      -399.0129   6.0000                                                             
     4  2  2.50      -220.3959  10.0000                                                             
     4  3  3.50       -23.0374  14.0000                                                             
     5  0  0.50       -71.2901   2.0000                                                             
     5  1  1.50       -37.8225   6.0000                                                             
     5  2  2.50        -2.6455   4.0000                                                             
     6  0  0.50        -4.9623   1.0000                                                             
     6  1  1.50        -1.3606   0.0000                                                             
     5  3  2.50        -1.3606   0.0000                                                             
   Description                                                                                      
     l       E           TYP  RCUT    TYP  RCUT                                                     
     2     -2.6455043     23  2.500                                                                 
     2     -0.6258895     23  2.500                                                                 
     0     -4.9622780     23  2.500                                                                 
     0      4.7531321     23  2.500                                                                 
     1     -1.3605826     23  2.900                                                                 
     1     27.2116520     23  2.900                                                                 
  local pseudopotential read in
  partial core-charges read in
  partial kinetic energy density read in
  atomic valenz-charges read in
  non local Contribution for L=           2  read in
    real space projection operators read in
  non local Contribution for L=           2  read in
    real space projection operators read in
  non local Contribution for L=           0  read in
    real space projection operators read in
  non local Contribution for L=           0  read in
    real space projection operators read in
  non local Contribution for L=           1  read in
    real space projection operators read in
  non local Contribution for L=           1  read in
    real space projection operators read in
    PAW grid and wavefunctions read in
 
   number of l-projection  operators is LMAX  =           6
   number of lm-projection operators is LMMAX =          18
 
 POTCAR:    PAW_PBE C 08Apr2002                   
   VRHFIN =C: s2p2                                                                                  
   LEXCH  = PE                                                                                      
   EATOM  =   147.1560 eV,   10.8157 Ry                                                             
                                                                                                    
   TITEL  = PAW_PBE C 08Apr2002                                                                     
   LULTRA =        F    use ultrasoft PP ?                                                          
   IUNSCR =        1    unscreen: 0-lin 1-nonlin 2-no                                               
   RPACOR =    1.200    partial core radius                                                         
   POMASS =   12.011; ZVAL   =    4.000    mass and valenz                                          
   RCORE  =    1.500    outmost cutoff radius                                                       
   RWIGS  =    1.630; RWIGS  =    0.863    wigner-seitz radius (au A)                               
   ENMAX  =  400.000; ENMIN  =  300.000 eV                                                          
   ICORE  =        2    local potential                                                             
   LCOR   =        T    correct aug charges                                                         
   LPAW   =        T    paw PP                                                                      
   EAUG   =  644.873                                                                                
   DEXC   =    0.000                                                                                
   RMAX   =    1.529    core radius for proj-oper                                                   
   RAUG   =    1.300    factor for augmentation sphere                                              
   RDEP   =    1.501    radius for radial grids                                                     
   RDEPT  =    1.300    core radius for aug-charge                                                  
                                                                                                    
   Atomic configuration                                                                             
    4 entries                                                                                       
     n  l   j            E        occ.                                                              
     1  0  0.50      -273.3789   2.0000                                                             
     2  0  0.50       -13.7508   2.0000                                                             
     2  1  0.50        -5.2854   2.0000                                                             
     3  2  1.50        -5.4423   0.0000                                                             
   Description                                                                                      
     l       E           TYP  RCUT    TYP  RCUT                                                     
     0    -13.7508458     23  1.200                                                                 
     0     -8.2022199     23  1.200                                                                 
     1     -5.2854383     23  1.500                                                                 
     1     34.0145650     23  1.500                                                                 
     2     -5.4423304      7  1.500                                                                 
  local pseudopotential read in
  partial core-charges read in
  partial kinetic energy density read in
  atomic valenz-charges read in
  non local Contribution for L=           0  read in
    real space projection operators read in
  non local Contribution for L=           0  read in
    real space projection operators read in
  non local Contribution for L=           1  read in
    real space projection operators read in
  non local Contribution for L=           1  read in
    real space projection operators read in
    PAW grid and wavefunctions read in
 
   number of l-projection  operators is LMAX  =           4
   number of lm-projection operators is LMMAX =           8
 
 POTCAR:    PAW_PBE O 08Apr2002                   
   VRHFIN =O: s2p4                                                                                  
   LEXCH  = PE                                                                                      
   EATOM  =   432.3788 eV,   31.7789 Ry                                                             
                                                                                                    
   TITEL  = PAW_PBE O 08Apr2002                                                                     
   LULTRA =        F    use ultrasoft PP ?                                                          
   IUNSCR =        1    unscreen: 0-lin 1-nonlin 2-no                                               
   RPACOR =    1.200    partial core radius                                                         
   POMASS =   16.000; ZVAL   =    6.000    mass and valenz                                          
   RCORE  =    1.520    outmost cutoff radius                                                       
   RWIGS  =    1.550; RWIGS  =    0.820    wigner-seitz radius (au A)                               
   ENMAX  =  400.000; ENMIN  =  300.000 eV                                                          
   ICORE  =        2    local potential                                                             
   LCOR   =        T    correct aug charges                                                         
   LPAW   =        T    paw PP                                                                      
   EAUG   =  605.392                                                                                
   DEXC   =    0.000                                                                                
   RMAX   =    1.553    core radius for proj-oper                                                   
   RAUG   =    1.300    factor for augmentation sphere                                              
   RDEP   =    1.550    radius for radial grids                                                     
   RDEPT  =    1.329    core radius for aug-charge                                                  
                                                                                                    
   Atomic configuration                                                                             
    4 entries                                                                                       
     n  l   j            E        occ.                                                              
     1  0  0.50      -514.6923   2.0000                                                             
     2  0  0.50       -23.9615   2.0000                                                             
     2  1  0.50        -9.0305   4.0000                                                             
     3  2  1.50        -9.5241   0.0000                                                             
   Description                                                                                      
     l       E           TYP  RCUT    TYP  RCUT                                                     
     0    -23.9615318     23  1.200                                                                 
     0     -9.5240782     23  1.200                                                                 
     1     -9.0304911     23  1.520                                                                 
     1      8.1634956     23  1.520                                                                 
     2     -9.5240782      7  1.500                                                                 
  local pseudopotential read in
  partial core-charges read in
  partial kinetic energy density read in
  kinetic energy density of atom read in
  atomic valenz-charges read in
  non local Contribution for L=           0  read in
    real space projection operators read in
  non local Contribution for L=           0  read in
    real space projection operators read in
  non local Contribution for L=           1  read in
    real space projection operators read in
  non local Contribution for L=           1  read in
    real space projection operators read in
    PAW grid and wavefunctions read in
 
   number of l-projection  operators is LMAX  =           4
   number of lm-projection operators is LMMAX =           8
 
 Optimization of the real space projectors (new method)

 maximal supplied QI-value         = 15.12
 optimisation between [QCUT,QGAM] = [ 11.34, 22.83] = [ 36.00,145.93] Ry 
 Optimized for a Real-space Cutoff    1.43 Angstroem

   l    n(q)    QCUT    max X(q) W(low)/X(q) W(high)/X(q)  e(spline) 
   2      9    11.338    53.897    0.16E-03    0.20E-03    0.28E-06
   2      9    11.338    52.416    0.16E-03    0.20E-03    0.29E-06
   0     10    11.338   122.045    0.31E-04    0.76E-04    0.15E-06
   0     10    11.338    73.629    0.30E-04    0.72E-04    0.15E-06
   1      9    11.338    15.255    0.20E-03    0.19E-04    0.17E-06
   1      9    11.338     9.562    0.16E-03    0.15E-04    0.14E-06
 Optimization of the real space projectors (new method)

 maximal supplied QI-value         = 12.85
 optimisation between [QCUT,QGAM] = [ 11.44, 22.87] = [ 36.63,146.51] Ry 
 Optimized for a Real-space Cutoff    1.61 Angstroem

   l    n(q)    QCUT    max X(q) W(low)/X(q) W(high)/X(q)  e(spline) 
   2     10    11.437    62.315    0.14E-03    0.26E-03    0.80E-06
   2     10    11.437    52.185    0.14E-03    0.26E-03    0.80E-06
   0     11    11.437   103.837    0.25E-04    0.17E-04    0.84E-07
   0     11    11.437    59.728    0.20E-04    0.15E-04    0.73E-07
   1     11    11.437    13.958    0.47E-03    0.12E-03    0.89E-06
   1     11    11.437     8.441    0.33E-03    0.88E-04    0.61E-06
 Optimization of the real space projectors (new method)

 maximal supplied QI-value         = 25.13
 optimisation between [QCUT,QGAM] = [ 11.31, 22.87] = [ 35.82,146.48] Ry 
 Optimized for a Real-space Cutoff    1.00 Angstroem

   l    n(q)    QCUT    max X(q) W(low)/X(q) W(high)/X(q)  e(spline) 
   0      7    11.310   115.676    0.43E-03    0.13E-02    0.19E-06
   0      7    11.310    87.132    0.43E-03    0.13E-02    0.18E-06
   1      6    11.310     4.429    0.42E-03    0.74E-03    0.11E-06
   1      6    11.310     2.733    0.34E-03    0.55E-03    0.92E-07
 Optimization of the real space projectors (new method)

 maximal supplied QI-value         = 24.76
 optimisation between [QCUT,QGAM] = [ 11.39, 22.77] = [ 36.31,145.25] Ry 
 Optimized for a Real-space Cutoff    1.00 Angstroem

   l    n(q)    QCUT    max X(q) W(low)/X(q) W(high)/X(q)  e(spline) 
   0      7    11.387    20.381    0.39E-03    0.13E-02    0.15E-06
   0      7    11.387    15.268    0.42E-03    0.14E-02    0.17E-06
   1      6    11.387     5.964    0.41E-03    0.11E-02    0.17E-06
   1      6    11.387     5.382    0.39E-03    0.87E-03    0.15E-06
  PAW_PBE Ag 02Apr2005                  :
 energy of atom  1       EATOM=-1037.2675
 kinetic energy error for atom=    0.0052 (will be added to EATOM!!)
  PAW_PBE Ta 17Jan2003                  :
 energy of atom  2       EATOM= -130.6506
 kinetic energy error for atom=    0.0012 (will be added to EATOM!!)
  PAW_PBE C 08Apr2002                   :
 energy of atom  3       EATOM= -147.1560
 kinetic energy error for atom=    0.0076 (will be added to EATOM!!)
  PAW_PBE O 08Apr2002                   :
 energy of atom  4       EATOM= -432.3788
 kinetic energy error for atom=    0.0224 (will be added to EATOM!!)
 
 
 POSCAR: Ag-Ta-CO
  positions in direct lattice
  velocities in cartesian coordinates
 exchange correlation table for  LEXCH =        8
   RHO(1)=    0.500       N(1)  =     2000
   RHO(2)=  100.500       N(2)  =     4000

 VTST: version 3.2, (02/03/18)

 CHAIN: initializing optimizer
 
 OPT: Using VASP Conjugate-Gradient optimizer
 CHAIN: Read ICHAIN            0
 
 POSCAR: Ag-Ta-CO
  positions in direct lattice
  velocities in cartesian coordinates
 


--------------------------------------------------------------------------------------------------------


 ion  position               nearest neighbor table
   1  0.000  0.000  0.238-   2 2.93   8 2.93   7 2.93   6 2.93   4 2.93  12 2.93  16 2.93  10 2.93
                             3 2.93
   2  0.333  0.000  0.238-   1 2.93   8 2.93   9 2.93   3 2.93   4 2.93   5 2.93  10 2.93  17 2.93
                            11 2.93
   3  0.667  0.000  0.238-   9 2.93   2 2.93   5 2.93  11 2.93   7 2.93  18 2.93   1 2.93   6 2.93
                            12 2.93
   4  0.000  0.333  0.238-   5 2.93   6 2.93   2 2.93   1 2.93   7 2.93  13 2.93  15 2.93   9 2.93
                            10 2.93
   5  0.333  0.333  0.238-   4 2.93   3 2.93   7 2.93   2 2.93   8 2.93  14 2.93  13 2.93  11 2.93
                             6 2.93
   6  0.667  0.333  0.238-   4 2.93   9 2.93   1 2.93  15 2.93   8 2.93  12 2.93   3 2.93   5 2.93
                            14 2.93
   7  0.000  0.667  0.238-   8 2.93   1 2.93   5 2.93   3 2.93   4 2.93  16 2.93  18 2.93  13 2.93
                             9 2.93
   8  0.333  0.667  0.238-   7 2.93   1 2.93   2 2.93   9 2.93   5 2.93  16 2.93   6 2.93  17 2.93
                            14 2.93
   9  0.667  0.667  0.238-   3 2.93   2 2.93   8 2.93   6 2.93  17 2.93   4 2.93  15 2.93   7 2.93
                            18 2.93
  10  0.111  0.111  0.346-  20 2.89  12 2.93  16 2.93  15 2.93  17 2.93  13 2.93  11 2.93   2 2.93
                             1 2.93   4 2.93  19 2.93  26 2.93
  11  0.444  0.111  0.346-  21 2.90  20 2.90  14 2.93  17 2.93  18 2.93   3 2.93  12 2.93  13 2.93
                            10 2.93   5 2.93   2 2.93  27 2.93
  12  0.778  0.111  0.346-  21 2.89  10 2.93  16 2.93  18 2.93  15 2.93  11 2.93   1 2.93  14 2.93
                             6 2.93   3 2.93  25 2.93  19 2.93
  13  0.111  0.444  0.346-  20 2.90  23 2.90  15 2.93  14 2.93  18 2.93  10 2.93  11 2.93  16 2.93
                             4 2.93   5 2.93   7 2.93  22 2.93
  14  0.444  0.444  0.346-  23 2.90  21 2.90  13 2.93  11 2.93  16 2.93   5 2.93  12 2.93  17 2.93
                             8 2.93  15 2.93   6 2.93  24 2.93
  15  0.778  0.444  0.346-  19 2.93  24 2.93  22 2.93  13 2.93  10 2.93  12 2.93  17 2.93  18 2.93
                             4 2.93   6 2.93   9 2.93  14 2.93
  16  0.111  0.778  0.346-  23 2.89  18 2.93  12 2.93  10 2.93  14 2.93  17 2.93  13 2.93   7 2.93
                             8 2.93   1 2.93  26 2.93  25 2.93
  17  0.444  0.778  0.346-  26 2.93  27 2.93  24 2.93  11 2.93  10 2.93   9 2.93  18 2.93  15 2.93
                            16 2.93   2 2.93  14 2.93   8 2.93
  18  0.778  0.778  0.346-  25 2.93  22 2.93  27 2.93  16 2.93  12 2.93  13 2.93  11 2.93  17 2.93
                            15 2.93   7 2.93   3 2.93   9 2.93
  19  0.889  0.223  0.454-  20 2.92  21 2.92  24 2.93  22 2.93  28 2.93  15 2.93  10 2.93  12 2.93
                            26 2.94  25 2.94  32 2.99  31 2.99
  20  0.222  0.222  0.452-  36 2.78  10 2.89  13 2.90  11 2.90  19 2.92  26 2.92  27 2.93  22 2.93
                            21 2.95  23 2.95  31 2.97  29 2.97
  21  0.557  0.222  0.452-  36 2.78  12 2.89  11 2.90  14 2.90  25 2.92  19 2.92  27 2.93  24 2.93
                            20 2.95  23 2.95  30 2.97  32 2.97
  22  0.888  0.556  0.454-  24 2.92  27 2.92  25 2.93  19 2.93  18 2.93  15 2.93  13 2.93  23 2.93
                            20 2.93  35 2.94  33 2.96  31 2.96
  23  0.222  0.557  0.452-  36 2.78  16 2.89  14 2.90  13 2.90  26 2.92  25 2.92  22 2.93  24 2.93
                            21 2.95  20 2.95  34 2.97  33 2.97
  24  0.556  0.556  0.454-  27 2.92  22 2.92  19 2.93  26 2.93  15 2.93  17 2.93  14 2.93  23 2.93
                            21 2.93  35 2.94  32 2.96  34 2.96
  25  0.889  0.889  0.454-  23 2.92  21 2.92  22 2.93  27 2.93  28 2.93  18 2.93  16 2.93  12 2.93
                            26 2.94  19 2.94  33 2.99  30 2.99
  26  0.223  0.889  0.454-  23 2.92  20 2.92  27 2.93  24 2.93  28 2.93  17 2.93  16 2.93  10 2.93
                            25 2.94  19 2.94  34 2.99  29 2.99
  27  0.556  0.888  0.454-  24 2.92  22 2.92  26 2.93  25 2.93  17 2.93  18 2.93  11 2.93  20 2.93
                            21 2.93  35 2.94  29 2.96  30 2.96
  28  0.000  0.000  0.562-  26 2.93  25 2.93  19 2.93  29 2.96  34 2.96  33 2.96  32 2.96  31 2.96
                            30 2.96
  29  0.334  0.006  0.564-  30 2.88  31 2.88  36 2.89  35 2.96  28 2.96  27 2.96  20 2.97  26 2.99
                            34 3.03
  30  0.661  0.006  0.564-  29 2.88  32 2.88  36 2.89  35 2.96  28 2.96  27 2.96  21 2.97  25 2.99
                            33 3.03
  31  0.006  0.334  0.564-  33 2.88  29 2.88  36 2.89  35 2.96  28 2.96  22 2.96  20 2.97  19 2.99
                            32 3.03
  32  0.661  0.334  0.564-  34 2.88  30 2.88  36 2.89  35 2.96  28 2.96  24 2.96  21 2.97  19 2.99
                            31 3.03
  33  0.006  0.661  0.564-  31 2.88  34 2.88  36 2.89  35 2.96  28 2.96  22 2.96  23 2.97  25 2.99
                            30 3.03
  34  0.334  0.661  0.564-  32 2.88  33 2.88  36 2.89  35 2.96  28 2.96  24 2.96  23 2.97  26 2.99
                            29 3.03
  35  0.667  0.667  0.562-  24 2.94  27 2.94  22 2.94  30 2.96  32 2.96  29 2.96  34 2.96  31 2.96
                            33 2.96
  36  0.333  0.333  0.551-  37 2.06  21 2.78  20 2.78  23 2.78  31 2.89  33 2.89  30 2.89  29 2.89
                            34 2.89  32 2.89
  37  0.333  0.333  0.644-  38 1.17  36 2.06
  38  0.333  0.333  0.697-  37 1.17
 
  LATTYP: Found a hexagonal cell.
 ALAT       =     8.7913665772
 C/A-ratio  =     2.5227160501
  
  Lattice vectors:
  
 A1 = (  -4.3956832886,  -7.6135467898,   0.0000000000)
 A2 = (   8.7913665771,   0.0000000000,   0.0000000000)
 A3 = (   0.0000000000,   0.0000000000,  22.1781215668)


Analysis of symmetry for initial positions (statically):
=====================================================================
 Subroutine PRICEL returns:
 Original cell was already a primitive cell.
 

 Routine SETGRP: Setting up the symmetry group for a 
 hexagonal supercell.


 Subroutine GETGRP returns: Found  6 space group operations
 (whereof  6 operations were pure point group operations)
 out of a pool of 24 trial point group operations.


The static configuration has the point symmetry C_3v.


Analysis of symmetry for dynamics (positions and initial velocities):
=====================================================================
 Subroutine PRICEL returns:
 Original cell was already a primitive cell.
 

 Routine SETGRP: Setting up the symmetry group for a 
 hexagonal supercell.


 Subroutine GETGRP returns: Found  6 space group operations
 (whereof  6 operations were pure point group operations)
 out of a pool of 24 trial point group operations.


The dynamic configuration has the point symmetry C_3v.


Analysis of constrained symmetry for selective dynamics:
=====================================================================
 Subroutine PRICEL returns:
 Original cell was already a primitive cell.
 

 Routine SETGRP: Setting up the symmetry group for a 
 hexagonal supercell.


 Subroutine GETGRP returns: Found  6 space group operations
 (whereof  6 operations were pure point group operations)
 out of a pool of 24 trial point group operations.


The constrained configuration has the point symmetry C_3v.


 Subroutine INISYM returns: Found  6 space group operations
 (whereof  6 operations are pure point group operations),
 and found     1 'primitive' translations


----------------------------------------------------------------------------------------

                                     Primitive cell                                     

  volume of cell :    1484.4589

  direct lattice vectors                    reciprocal lattice vectors
     8.791366577  0.000000000  0.000000000     0.113747958 -0.065672414  0.000000000
     4.395683289  7.613546790  0.000000000     0.000000000  0.131344829  0.000000000
     0.000000000  0.000000000 22.178121567     0.000000000  0.000000000  0.045089481

  length of vectors
     8.791366577  8.791366577 22.178121567     0.131344829  0.131344829  0.045089481

  position of ions in fractional coordinates (direct lattice)
     0.000000000  0.000000000  0.238171124
     0.333333313  0.000000000  0.238171124
     0.666666627  0.000000000  0.238171124
     0.000000000  0.333333343  0.238171124
     0.333333313  0.333333343  0.238171124
     0.666666687  0.333333343  0.238171124
     0.000000000  0.666666687  0.238171124
     0.333333313  0.666666687  0.238171124
     0.666666627  0.666666687  0.238171124
     0.111111104  0.111111112  0.346057051
     0.444444448  0.111111112  0.346057051
     0.777777791  0.111111112  0.346057051
     0.111111097  0.444444448  0.346057051
     0.444444418  0.444444448  0.346057051
     0.777777791  0.444444448  0.346057051
     0.111111104  0.777777791  0.346057051
     0.444444448  0.777777791  0.346057051
     0.777777791  0.777777791  0.346057051
     0.888701275  0.222597467  0.454023632
     0.221552221  0.221552236  0.451971225
     0.556895499  0.221552236  0.451971225
     0.888301432  0.555849314  0.454003918
     0.221552236  0.556895559  0.451971225
     0.555849314  0.555849314  0.454003918
     0.888701275  0.888701275  0.454023632
     0.222597437  0.888701275  0.454023632
     0.555849254  0.888301432  0.454003918
     0.000000000  0.000000000  0.561717193
     0.333507489  0.005743574  0.563601249
     0.660748877  0.005743574  0.563601249
     0.005743574  0.333507519  0.563601249
     0.660748937  0.333507519  0.563601249
     0.005743574  0.660748937  0.563601249
     0.333507489  0.660748937  0.563601249
     0.666666627  0.666666687  0.562313347
     0.333333313  0.333333343  0.551278424
     0.333333313  0.333333343  0.644257647
     0.333333313  0.333333343  0.697195624

  ion indices of the primitive-cell ions
   primitive index   ion index
                 1           1
                 2           2
                 3           3
                 4           4
                 5           5
                 6           6
                 7           7
                 8           8
                 9           9
                10          10
                11          11
                12          12
                13          13
                14          14
                15          15
                16          16
                17          17
                18          18
                19          19
                20          20
                21          21
                22          22
                23          23
                24          24
                25          25
                26          26
                27          27
                28          28
                29          29
                30          30
                31          31
                32          32
                33          33
                34          34
                35          35
                36          36
                37          37
                38          38

----------------------------------------------------------------------------------------

 
 
 KPOINTS: Automatic mesh                          

Automatic generation of k-mesh.
 Grid dimensions read from file:
 generate k-points for:    8    8    1

 Generating k-lattice:

  Cartesian coordinates                     Fractional coordinates (reciprocal lattice)
     0.014218495 -0.008209052  0.000000000     0.125000000  0.000000000  0.000000000
     0.000000000  0.016418104  0.000000000     0.000000000  0.125000000  0.000000000
     0.000000000  0.000000000  0.045089481     0.000000000  0.000000000  1.000000000

  Length of vectors
     0.016418104  0.016418104  0.045089481

  Shift w.r.t. Gamma in fractional coordinates (k-lattice)
     0.000000000  0.000000000  0.000000000

 TETIRR: Found     36 inequivalent tetrahedra from      384
 
 Subroutine IBZKPT returns following result:
 ===========================================
 
 Found     10 irreducible k-points:
 
 Following reciprocal coordinates:
            Coordinates               Weight
  0.000000  0.000000  0.000000      1.000000
  0.125000 -0.000000  0.000000      6.000000
  0.250000 -0.000000  0.000000      6.000000
  0.375000 -0.000000  0.000000      6.000000
  0.500000 -0.000000  0.000000      3.000000
  0.250000  0.125000  0.000000      6.000000
  0.375000  0.125000  0.000000     12.000000
  0.500000  0.125000  0.000000     12.000000
  0.500000  0.250000  0.000000      6.000000
 -0.375000  0.250000  0.000000      6.000000
 
 Following cartesian coordinates:
            Coordinates               Weight
  0.000000  0.000000  0.000000      1.000000
  0.014218 -0.008209  0.000000      6.000000
  0.028437 -0.016418  0.000000      6.000000
  0.042655 -0.024627  0.000000      6.000000
  0.056874 -0.032836  0.000000      3.000000
  0.028437 -0.000000  0.000000      6.000000
  0.042655 -0.008209  0.000000     12.000000
  0.056874 -0.016418  0.000000     12.000000
  0.056874 -0.000000  0.000000      6.000000
 -0.042655  0.057463  0.000000      6.000000
 


--------------------------------------------------------------------------------------------------------




 Dimension of arrays:
   k-points           NKPTS =     10   k-points in BZ     NKDIM =     10   number of bands    NBANDS=    252
   number of dos      NEDOS =    301   number of ions     NIONS =     38
   non local maximal  LDIM  =      6   non local SUM 2l+1 LMDIM =     18
   total plane-waves  NPLWV = 290304
   max r-space proj   IRMAX =   3475   max aug-charges    IRDMAX=  13510
   dimension x,y,z NGX =    48 NGY =   48 NGZ =  126
   dimension x,y,z NGXF=    96 NGYF=   96 NGZF=  252
   support grid    NGXF=    96 NGYF=   96 NGZF=  252
   ions per type =              35   1   1   1
   NGX,Y,Z   is equivalent  to a cutoff of   9.08,  9.08,  9.44 a.u.
   NGXF,Y,Z  is equivalent  to a cutoff of  18.15, 18.15, 18.89 a.u.

 SYSTEM =  unknown system                          
 POSCAR =  Ag-Ta-CO                                

 Startparameter for this run:
   NWRITE =      2    write-flag & timer
   PREC   = normal    normal or accurate (medium, high low for compatibility)
   ISTART =      0    job   : 0-new  1-cont  2-samecut
   ICHARG =     11    charge: 1-file 2-atom 10-const
   ISPIN  =      1    spin polarized calculation?
   LNONCOLLINEAR =      F non collinear calculations
   LSORBIT =      F    spin-orbit coupling
   INIWAV =      1    electr: 0-lowe 1-rand  2-diag
   LASPH  =      F    aspherical Exc in radial PAW
   METAGGA=      F    non-selfconsistent MetaGGA calc.

 Electronic Relaxation 1
   ENCUT  =  500.0 eV  36.75 Ry    6.06 a.u.  16.03 16.03 40.44*2*pi/ulx,y,z
   ENINI  =  500.0     initial cutoff
   ENAUG  =  644.9 eV  augmentation charge cutoff
   NELM   =    150;   NELMIN=  2; NELMDL= -5     # of ELM steps 
   EDIFF  = 0.1E-04   stopping-criterion for ELM
   LREAL  =      T    real-space projection
   NLSPLINE    = F    spline interpolate recip. space projectors
   LCOMPAT=      F    compatible to vasp.4.4
   GGA_COMPAT  = T    GGA compatible to vasp.4.4-vasp.4.6
   LMAXPAW     = -100 max onsite density
   LMAXMIX     =    2 max onsite mixed and CHGCAR
   VOSKOWN=      0    Vosko Wilk Nusair interpolation
   ROPT   =   -0.00050  -0.00050  -0.00050  -0.00050
 Ionic relaxation
   EDIFFG = -.1E-01   stopping-criterion for IOM
   NSW    =      0    number of steps for IOM
   NBLOCK =      1;   KBLOCK =      1    inner block; outer block 
   IBRION =     -1    ionic relax: 0-MD 1-quasi-New 2-CG
   NFREE  =      1    steps in history (QN), initial steepest desc. (CG)
   ISIF   =      2    stress and relaxation
   IWAVPR =     10    prediction:  0-non 1-charg 2-wave 3-comb
   ISYM   =      2    0-nonsym 1-usesym 2-fastsym
   LCORR  =      T    Harris-Foulkes like correction to forces

   POTIM  = 0.5000    time-step for ionic-motion
   TEIN   =    0.0    initial temperature
   TEBEG  =    0.0;   TEEND  =   0.0 temperature during run
   SMASS  =  -3.00    Nose mass-parameter (am)
   estimated Nose-frequenzy (Omega)   =  0.10E-29 period in steps = 0.13E+47 mass=  -0.177E-26a.u.
   SCALEE = 1.0000    scale energy and forces
   NPACO  =    256;   APACO  = 16.0  distance and # of slots for P.C.
   PSTRESS=    0.0 pullay stress

  Mass of Ions in am
   POMASS = 107.87180.95 12.01 16.00
  Ionic Valenz
   ZVAL   =  11.00  5.00  4.00  6.00
  Atomic Wigner-Seitz radii
   RWIGS  =  -1.00 -1.00 -1.00 -1.00
  virtual crystal weights 
   VCA    =   1.00  1.00  1.00  1.00
   NELECT =     400.0000    total number of electrons
   NUPDOWN=      -1.0000    fix difference up-down

 DOS related values:
   EMIN   =  10.00;   EMAX   =-10.00  energy-range for DOS
   EFERMI =   0.00
   ISMEAR =    -5;   SIGMA  =   0.10  broadening in eV -4-tet -1-fermi 0-gaus

 Electronic relaxation 2 (details)
   IALGO  =     68    algorithm
   LDIAG  =      T    sub-space diagonalisation (order eigenvalues)
   LSUBROT=      F    optimize rotation matrix (better conditioning)
   TURBO    =      0    0=normal 1=particle mesh
   IRESTART =      0    0=no restart 2=restart with 2 vectors
   NREBOOT  =      0    no. of reboots
   NMIN     =      0    reboot dimension
   EREF     =   0.00    reference energy to select bands
   IMIX   =      4    mixing-type and parameters
     AMIX     =   0.40;   BMIX     =  1.00
     AMIX_MAG =   1.60;   BMIX_MAG =  1.00
     AMIN     =   0.10
     WC   =   100.;   INIMIX=   1;  MIXPRE=   1;  MAXMIX= -45

 Intra band minimization:
   WEIMIN = 0.0000     energy-eigenvalue tresh-hold
   EBREAK =  0.99E-08  absolut break condition
   DEPER  =   0.30     relativ break condition  

   TIME   =   0.40     timestep for ELM

  volume/ion in A,a.u.               =      39.06       263.62
  Fermi-wavevector in a.u.,A,eV,Ry     =   1.057399  1.998194 15.212565  1.118092
  Thomas-Fermi vector in A             =   2.192670
 
 Write flags
   LWAVE        =      F    write WAVECAR
   LDOWNSAMPLE  =      F    k-point downsampling of WAVECAR
   LCHARG       =      F    write CHGCAR
   LVTOT        =      F    write LOCPOT, total local potential
   LVHAR        =      F    write LOCPOT, Hartree potential only
   LELF         =      F    write electronic localiz. function (ELF)
   LORBIT       =     10    0 simple, 1 ext, 2 COOP (PROOUT), +10 PAW based schemes


 Dipole corrections
   LMONO  =      F    monopole corrections only (constant potential shift)
   LDIPOL =      F    correct potential (dipole corrections)
   IDIPOL =      0    1-x, 2-y, 3-z, 4-all directions 
   EPSILON=  1.0000000 bulk dielectric constant

 Exchange correlation treatment:
   GGA     =    --    GGA type
   LEXCH   =     8    internal setting for exchange type
   VOSKOWN=      0    Vosko Wilk Nusair interpolation
   LHFCALC =     F    Hartree Fock is set to
   LHFONE  =     F    Hartree Fock one center treatment
   AEXX    =    0.0000 exact exchange contribution

 Linear response parameters
   LEPSILON=     F    determine dielectric tensor
   LRPA    =     F    only Hartree local field effects (RPA)
   LNABLA  =     F    use nabla operator in PAW spheres
   LVEL    =     F    velocity operator in full k-point grid
   LINTERFAST=   F  fast interpolation
   KINTER  =     0    interpolate to denser k-point grid
   CSHIFT  =0.1000    complex shift for real part using Kramers Kronig
   OMEGAMAX=  -1.0    maximum frequency
   DEG_THRESHOLD= 0.2000000E-02 threshold for treating states as degnerate
   RTIME   =   -0.100 relaxation time in fs
  (WPLASMAI=    0.000 imaginary part of plasma frequency in eV, 0.658/RTIME)
   DFIELD  = 0.0000000 0.0000000 0.0000000 field for delta impulse in time
 
 Orbital magnetization related:
   ORBITALMAG=     F  switch on orbital magnetization
   LCHIMAG   =     F  perturbation theory with respect to B field
   DQ        =  0.001000  dq finite difference perturbation B field
   LLRAUG    =     F  two centre corrections for induced B field



--------------------------------------------------------------------------------------------------------


 Static calculation
 charge density and potential remain constant during run
 non-spin polarized calculation
 RMM-DIIS sequential band-by-band and
  variant of blocked Davidson during initial phase
 perform sub-space diagonalisation
    before iterative eigenvector-optimisation
 no mixing
 using additional bands           52
 real space projection scheme for non local part
 use partial core corrections
 calculate Harris-corrections to forces 
   (improved forces if not selfconsistent)
 use gradient corrections 
 WARNING: stress and forces are not correct
  (second derivative of E(xc) not defined)
 use of overlap-Matrix (Vanderbilt PP)
 Fermi weights with tetrahedron method with Bloechl corrections


--------------------------------------------------------------------------------------------------------


  energy-cutoff  :      500.00
  volume of cell :     1484.46
      direct lattice vectors                 reciprocal lattice vectors
     8.791366577  0.000000000  0.000000000     0.113747958 -0.065672414  0.000000000
     4.395683289  7.613546790  0.000000000     0.000000000  0.131344829  0.000000000
     0.000000000  0.000000000 22.178121567     0.000000000  0.000000000  0.045089481

  length of vectors
     8.791366577  8.791366577 22.178121567     0.131344829  0.131344829  0.045089481


 
 k-points in units of 2pi/SCALE and weight: Automatic mesh                          
   0.00000000  0.00000000  0.00000000       0.016
   0.01421849 -0.00820905  0.00000000       0.094
   0.02843699 -0.01641810  0.00000000       0.094
   0.04265548 -0.02462716  0.00000000       0.094
   0.05687398 -0.03283621  0.00000000       0.047
   0.02843699 -0.00000000  0.00000000       0.094
   0.04265548 -0.00820905  0.00000000       0.188
   0.05687398 -0.01641810  0.00000000       0.188
   0.05687398 -0.00000000  0.00000000       0.094
  -0.04265548  0.05746336  0.00000000       0.094
 
 k-points in reciprocal lattice and weights: Automatic mesh                          
   0.00000000  0.00000000  0.00000000       0.016
   0.12500000 -0.00000000  0.00000000       0.094
   0.25000000 -0.00000000  0.00000000       0.094
   0.37500000 -0.00000000  0.00000000       0.094
   0.50000000 -0.00000000  0.00000000       0.047
   0.25000000  0.12500000  0.00000000       0.094
   0.37500000  0.12500000  0.00000000       0.188
   0.50000000  0.12500000  0.00000000       0.188
   0.50000000  0.25000000  0.00000000       0.094
  -0.37500000  0.25000000  0.00000000       0.094
 
 position of ions in fractional coordinates (direct lattice) 
   0.00000000  0.00000000  0.23817112
   0.33333331  0.00000000  0.23817112
   0.66666663  0.00000000  0.23817112
   0.00000000  0.33333334  0.23817112
   0.33333331  0.33333334  0.23817112
   0.66666669  0.33333334  0.23817112
   0.00000000  0.66666669  0.23817112
   0.33333331  0.66666669  0.23817112
   0.66666663  0.66666669  0.23817112
   0.11111110  0.11111111  0.34605705
   0.44444445  0.11111111  0.34605705
   0.77777779  0.11111111  0.34605705
   0.11111110  0.44444445  0.34605705
   0.44444442  0.44444445  0.34605705
   0.77777779  0.44444445  0.34605705
   0.11111110  0.77777779  0.34605705
   0.44444445  0.77777779  0.34605705
   0.77777779  0.77777779  0.34605705
   0.88870127  0.22259747  0.45402363
   0.22155222  0.22155224  0.45197123
   0.55689550  0.22155224  0.45197123
   0.88830143  0.55584931  0.45400392
   0.22155224  0.55689556  0.45197123
   0.55584931  0.55584931  0.45400392
   0.88870127  0.88870127  0.45402363
   0.22259744  0.88870127  0.45402363
   0.55584925  0.88830143  0.45400392
   0.00000000  0.00000000  0.56171719
   0.33350749  0.00574357  0.56360125
   0.66074888  0.00574357  0.56360125
   0.00574357  0.33350752  0.56360125
   0.66074894  0.33350752  0.56360125
   0.00574357  0.66074894  0.56360125
   0.33350749  0.66074894  0.56360125
   0.66666663  0.66666669  0.56231335
   0.33333331  0.33333334  0.55127842
   0.33333331  0.33333334  0.64425765
   0.33333331  0.33333334  0.69719562
 
 position of ions in cartesian coordinates  (Angst):
   0.00000000  0.00000000  5.28218814
   2.93045535  0.00000000  5.28218814
   5.86091070  0.00000000  5.28218814
   1.46522781  2.53784900  5.28218814
   4.39568315  2.53784900  5.28218814
   7.32613904  2.53784900  5.28218814
   2.93045562  5.07569801  5.28218814
   5.86091096  5.07569801  5.28218814
   8.79136632  5.07569801  5.28218814
   1.46522770  0.84594965  7.67489535
   4.39568332  0.84594965  7.67489535
   7.32613893  0.84594965  7.67489535
   2.93045542  3.38379860  7.67489535
   5.86091083  3.38379860  7.67489535
   8.79136671  3.38379860  7.67489535
   4.39568328  5.92164760  7.67489535
   7.32613890  5.92164760  7.67489535
  10.25659451  5.92164760  7.67489535
   8.79136665  1.69475623 10.06939130
   2.92162025  1.68679831 10.02387278
   5.86974594  1.68679831 10.02387278
  10.25272106  4.23198476 10.06895410
   4.39568342  4.23995040 10.02387278
   7.33001262  4.23198476 10.06895410
  11.71934803  6.76616874 10.06939130
   5.86338501  6.76616874 10.06939130
   8.79136631  6.76312452 10.06895410
   0.00000000  0.00000000 12.45783220
   2.95723353  0.04372897 12.49961703
   5.83413252  0.04372897 12.49961703
   1.51648729  2.53917510 12.49961703
   7.27487955  2.53917510 12.49961703
   2.95493692  5.03064295 12.49961703
   5.83642965  5.03064295 12.49961703
   8.79136632  5.07569801 12.47105378
   4.39568315  2.53784900 12.22631990
   4.39568315  2.53784900 14.28842441
   4.39568315  2.53784900 15.46248931
 


--------------------------------------------------------------------------------------------------------


 k-point   1 :   0.0000 0.0000 0.0000  plane waves:   37683
 k-point   2 :   0.1250-0.0000 0.0000  plane waves:   37658
 k-point   3 :   0.2500-0.0000 0.0000  plane waves:   37682
 k-point   4 :   0.3750-0.0000 0.0000  plane waves:   37686
 k-point   5 :   0.5000-0.0000 0.0000  plane waves:   37668
 k-point   6 :   0.2500 0.1250 0.0000  plane waves:   37666
 k-point   7 :   0.3750 0.1250 0.0000  plane waves:   37708
 k-point   8 :   0.5000 0.1250 0.0000  plane waves:   37726
 k-point   9 :   0.5000 0.2500 0.0000  plane waves:   37706
 k-point  10 :  -0.3750 0.2500 0.0000  plane waves:   37686

 maximum and minimum number of plane-waves per node :     37726    37658

 maximum number of plane-waves:     37726
 maximum index in each direction: 
   IXMAX=   16   IYMAX=   16   IZMAX=   40
   IXMIN=  -16   IYMIN=  -16   IZMIN=  -40


 serial   3D FFT for wavefunctions
 parallel 3D FFT for charge:
    minimum data exchange during FFTs selected (reduces bandwidth)


 total amount of memory used by VASP MPI-rank0   124609. kBytes
=======================================================================

   base      :      30000. kBytes
   nonlr-proj:      15711. kBytes
   fftplans  :       4330. kBytes
   grid      :      18659. kBytes
   one-center:        590. kBytes
   wavefun   :      55319. kBytes
 
     INWAV:  cpu time    0.0000: real time    0.0000
 initial charge density was supplied:
 number of electron     399.9999903 magnetization 
 keeping initial charge density in first step


--------------------------------------------------------------------------------------------------------


 Maximum index for non-local projection operator         3306
 Maximum index for augmentation-charges          706 (set IRDMAX)


--------------------------------------------------------------------------------------------------------


 First call to EWALD:  gamma=   0.155
 Maximum number of real-space cells 4x 4x 2
 Maximum number of reciprocal cells 2x 2x 5

    FEWALD:  cpu time    0.0013: real time    0.0013


--------------------------------------- Iteration      1(   1)  ---------------------------------------


    POTLOK:  cpu time    0.0431: real time    0.0433
    SETDIJ:  cpu time    0.0051: real time    0.0052
     EDDAV:  cpu time    7.1853: real time    7.1865
 BZINTS: Fermi energy:    9.516706;  400.000000 electrons
         Band energy: 0.117173E+04;  BLOECHL correction:    0.000000
       DOS:  cpu time    0.0055: real time    0.0055
    --------------------------------------------
      LOOP:  cpu time    7.2390: real time    7.2406

 eigenvalue-minimisations  :  5040
 total energy-change (2. order) : 0.2442897E+04  (-0.1857368E+05)
 number of electron     399.9999903 magnetization 
 augmentation part      399.9999903 magnetization 

 Free energy of the ion-electron system (eV)
  ---------------------------------------------------
  alpha Z        PSCENC =       770.91865077
  Ewald energy   TEWEN  =     93634.65046393
  -Hartree energ DENC   =   -131339.57707280
  -exchange      EXHF   =         0.00000000
  -V(xc)+E(xc)   XCENC  =      -414.44983782
  PAW double counting   =     39607.21838074   -38001.93230904
  entropy T*S    EENTRO =         0.00000000
  eigenvalues    EBANDS =      1171.73387358
  atomic energy  EATOM  =     37014.33504542
  Solvation  Ediel_sol  =         0.00000000
  ---------------------------------------------------
  free energy    TOTEN  =      2442.89719479 eV

  energy without entropy =     2442.89719479  energy(sigma->0) =     2442.89719479


--------------------------------------------------------------------------------------------------------




--------------------------------------- Iteration      1(   2)  ---------------------------------------


     EDDAV:  cpu time    7.4834: real time    7.4836
 BZINTS: Fermi energy:    1.419987;  400.000000 electrons
         Band energy:-0.129362E+04;  BLOECHL correction:   -0.029144
       DOS:  cpu time    0.0100: real time    0.0100
    --------------------------------------------
      LOOP:  cpu time    7.4934: real time    7.4936

 eigenvalue-minimisations  :  5320
 total energy-change (2. order) :-0.2465352E+04  (-0.2355484E+04)
 number of electron     399.9999903 magnetization 
 augmentation part      399.9999903 magnetization 

 Free energy of the ion-electron system (eV)
  ---------------------------------------------------
  alpha Z        PSCENC =       770.91865077
  Ewald energy   TEWEN  =     93634.65046393
  -Hartree energ DENC   =   -131339.57707280
  -exchange      EXHF   =         0.00000000
  -V(xc)+E(xc)   XCENC  =      -414.44983782
  PAW double counting   =     39607.21838074   -38001.93230904
  entropy T*S    EENTRO =         0.00000000
  eigenvalues    EBANDS =     -1293.61807834
  atomic energy  EATOM  =     37014.33504542
  Solvation  Ediel_sol  =         0.00000000
  ---------------------------------------------------
  free energy    TOTEN  =       -22.45475714 eV

  energy without entropy =      -22.45475714  energy(sigma->0) =      -22.45475714


--------------------------------------------------------------------------------------------------------




--------------------------------------- Iteration      1(   3)  ---------------------------------------


     EDDAV:  cpu time    8.2576: real time    8.2578
 BZINTS: Fermi energy:    0.799243;  400.000000 electrons
         Band energy:-0.138430E+04;  BLOECHL correction:   -0.028432
       DOS:  cpu time    0.0096: real time    0.0096
    --------------------------------------------
      LOOP:  cpu time    8.2672: real time    8.2674

 eigenvalue-minimisations  :  5992
 total energy-change (2. order) :-0.9068044E+02  (-0.8880449E+02)
 number of electron     399.9999903 magnetization 
 augmentation part      399.9999903 magnetization 

 Free energy of the ion-electron system (eV)
  ---------------------------------------------------
  alpha Z        PSCENC =       770.91865077
  Ewald energy   TEWEN  =     93634.65046393
  -Hartree energ DENC   =   -131339.57707280
  -exchange      EXHF   =         0.00000000
  -V(xc)+E(xc)   XCENC  =      -414.44983782
  PAW double counting   =     39607.21838074   -38001.93230904
  entropy T*S    EENTRO =         0.00000000
  eigenvalues    EBANDS =     -1384.29851642
  atomic energy  EATOM  =     37014.33504542
  Solvation  Ediel_sol  =         0.00000000
  ---------------------------------------------------
  free energy    TOTEN  =      -113.13519522 eV

  energy without entropy =     -113.13519522  energy(sigma->0) =     -113.13519522


--------------------------------------------------------------------------------------------------------




--------------------------------------- Iteration      1(   4)  ---------------------------------------


     EDDAV:  cpu time    7.9334: real time    7.9336
 BZINTS: Fermi energy:    0.775163;  400.000000 electrons
         Band energy:-0.138592E+04;  BLOECHL correction:   -0.029607
       DOS:  cpu time    0.0096: real time    0.0096
    --------------------------------------------
      LOOP:  cpu time    7.9431: real time    7.9433

 eigenvalue-minimisations  :  5712
 total energy-change (2. order) :-0.1620502E+01  (-0.1611468E+01)
 number of electron     399.9999903 magnetization 
 augmentation part      399.9999903 magnetization 

 Free energy of the ion-electron system (eV)
  ---------------------------------------------------
  alpha Z        PSCENC =       770.91865077
  Ewald energy   TEWEN  =     93634.65046393
  -Hartree energ DENC   =   -131339.57707280
  -exchange      EXHF   =         0.00000000
  -V(xc)+E(xc)   XCENC  =      -414.44983782
  PAW double counting   =     39607.21838074   -38001.93230904
  entropy T*S    EENTRO =         0.00000000
  eigenvalues    EBANDS =     -1385.91901820
  atomic energy  EATOM  =     37014.33504542
  Solvation  Ediel_sol  =         0.00000000
  ---------------------------------------------------
  free energy    TOTEN  =      -114.75569700 eV

  energy without entropy =     -114.75569700  energy(sigma->0) =     -114.75569700


--------------------------------------------------------------------------------------------------------




--------------------------------------- Iteration      1(   5)  ---------------------------------------


     EDDAV:  cpu time    8.4430: real time    8.4432
 BZINTS: Fermi energy:    0.774815;  400.000000 electrons
         Band energy:-0.138596E+04;  BLOECHL correction:   -0.029596
       DOS:  cpu time    0.0098: real time    0.0098
    --------------------------------------------
      LOOP:  cpu time    8.4528: real time    8.4531

 eigenvalue-minimisations  :  6160
 total energy-change (2. order) :-0.3953613E-01  (-0.3954513E-01)
 number of electron     399.9999903 magnetization 
 augmentation part      399.9999903 magnetization 

 Free energy of the ion-electron system (eV)
  ---------------------------------------------------
  alpha Z        PSCENC =       770.91865077
  Ewald energy   TEWEN  =     93634.65046393
  -Hartree energ DENC   =   -131339.57707280
  -exchange      EXHF   =         0.00000000
  -V(xc)+E(xc)   XCENC  =      -414.44983782
  PAW double counting   =     39607.21838074   -38001.93230904
  entropy T*S    EENTRO =         0.00000000
  eigenvalues    EBANDS =     -1385.95855433
  atomic energy  EATOM  =     37014.33504542
  Solvation  Ediel_sol  =         0.00000000
  ---------------------------------------------------
  free energy    TOTEN  =      -114.79523312 eV

  energy without entropy =     -114.79523312  energy(sigma->0) =     -114.79523312


--------------------------------------------------------------------------------------------------------




--------------------------------------- Iteration      1(   6)  ---------------------------------------


    EDDIAG:  cpu time    1.4032: real time    1.4036
  RMM-DIIS:  cpu time    4.0800: real time    4.0800
    ORTHCH:  cpu time    0.2594: real time    0.2594
 BZINTS: Fermi energy:    0.774813;  400.000000 electrons
         Band energy:-0.138596E+04;  BLOECHL correction:   -0.029596
       DOS:  cpu time    0.0100: real time    0.0100
    --------------------------------------------
      LOOP:  cpu time    5.7525: real time    5.7530

 eigenvalue-minimisations  :  5181
 total energy-change (2. order) :-0.9099365E-03  (-0.9099992E-03)
 number of electron     399.9999903 magnetization 
 augmentation part      399.9999903 magnetization 

 Free energy of the ion-electron system (eV)
  ---------------------------------------------------
  alpha Z        PSCENC =       770.91865077
  Ewald energy   TEWEN  =     93634.65046393
  -Hartree energ DENC   =   -131339.57707280
  -exchange      EXHF   =         0.00000000
  -V(xc)+E(xc)   XCENC  =      -414.44983782
  PAW double counting   =     39607.21838074   -38001.93230904
  entropy T*S    EENTRO =         0.00000000
  eigenvalues    EBANDS =     -1385.95946426
  atomic energy  EATOM  =     37014.33504542
  Solvation  Ediel_sol  =         0.00000000
  ---------------------------------------------------
  free energy    TOTEN  =      -114.79614306 eV

  energy without entropy =     -114.79614306  energy(sigma->0) =     -114.79614306


--------------------------------------------------------------------------------------------------------




--------------------------------------- Iteration      1(   7)  ---------------------------------------


    EDDIAG:  cpu time    1.4049: real time    1.4051
  RMM-DIIS:  cpu time    5.6206: real time    5.6206
    ORTHCH:  cpu time    0.2597: real time    0.2597
 BZINTS: Fermi energy:    0.774812;  400.000000 electrons
         Band energy:-0.138596E+04;  BLOECHL correction:   -0.029596
       DOS:  cpu time    0.0100: real time    0.0100
    --------------------------------------------
      LOOP:  cpu time    7.2952: real time    7.2954

 eigenvalue-minimisations  :  7291
 total energy-change (2. order) :-0.3186332E-03  (-0.3184628E-03)
 number of electron     399.9999903 magnetization 
 augmentation part      399.9999903 magnetization 

 Free energy of the ion-electron system (eV)
  ---------------------------------------------------
  alpha Z        PSCENC =       770.91865077
  Ewald energy   TEWEN  =     93634.65046393
  -Hartree energ DENC   =   -131339.57707280
  -exchange      EXHF   =         0.00000000
  -V(xc)+E(xc)   XCENC  =      -414.44983782
  PAW double counting   =     39607.21838074   -38001.93230904
  entropy T*S    EENTRO =         0.00000000
  eigenvalues    EBANDS =     -1385.95978289
  atomic energy  EATOM  =     37014.33504542
  Solvation  Ediel_sol  =         0.00000000
  ---------------------------------------------------
  free energy    TOTEN  =      -114.79646169 eV

  energy without entropy =     -114.79646169  energy(sigma->0) =     -114.79646169


--------------------------------------------------------------------------------------------------------




--------------------------------------- Iteration      1(   8)  ---------------------------------------


    EDDIAG:  cpu time    1.4062: real time    1.4064
  RMM-DIIS:  cpu time    4.1239: real time    4.1239
    ORTHCH:  cpu time    0.2598: real time    0.2598
 BZINTS: Fermi energy:    0.774812;  400.000000 electrons
         Band energy:-0.138596E+04;  BLOECHL correction:   -0.029596
       DOS:  cpu time    0.0098: real time    0.0098
    --------------------------------------------
      LOOP:  cpu time    5.7997: real time    5.8028

 eigenvalue-minimisations  :  5126
 total energy-change (2. order) :-0.1257574E-04  (-0.1352880E-04)
 number of electron     399.9999903 magnetization 
 augmentation part      399.9999903 magnetization 

 Free energy of the ion-electron system (eV)
  ---------------------------------------------------
  alpha Z        PSCENC =       770.91865077
  Ewald energy   TEWEN  =     93634.65046393
  -Hartree energ DENC   =   -131339.57707280
  -exchange      EXHF   =         0.00000000
  -V(xc)+E(xc)   XCENC  =      -414.44983782
  PAW double counting   =     39607.21838074   -38001.93230904
  entropy T*S    EENTRO =         0.00000000
  eigenvalues    EBANDS =     -1385.95979547
  atomic energy  EATOM  =     37014.33504542
  Solvation  Ediel_sol  =         0.00000000
  ---------------------------------------------------
  free energy    TOTEN  =      -114.79647427 eV

  energy without entropy =     -114.79647427  energy(sigma->0) =     -114.79647427


--------------------------------------------------------------------------------------------------------




--------------------------------------- Iteration      1(   9)  ---------------------------------------


    EDDIAG:  cpu time    1.4025: real time    1.4056
  RMM-DIIS:  cpu time    3.4159: real time    3.4160
    ORTHCH:  cpu time    0.2594: real time    0.2595
 BZINTS: Fermi energy:    0.774812;  400.000000 electrons
         Band energy:-0.138596E+04;  BLOECHL correction:   -0.029596
       DOS:  cpu time    0.0098: real time    0.0098
    --------------------------------------------
      LOOP:  cpu time    5.0876: real time    5.0880

 eigenvalue-minimisations  :  3750
 total energy-change (2. order) :-0.2835674E-05  (-0.2916947E-05)
 number of electron     399.9999903 magnetization 
 augmentation part      399.9999903 magnetization 

 Free energy of the ion-electron system (eV)
  ---------------------------------------------------
  alpha Z        PSCENC =       770.91865077
  Ewald energy   TEWEN  =     93634.65046393
  -Hartree energ DENC   =   -131339.57707280
  -exchange      EXHF   =         0.00000000
  -V(xc)+E(xc)   XCENC  =      -414.44983782
  PAW double counting   =     39607.21838074   -38001.93230904
  entropy T*S    EENTRO =         0.00000000
  eigenvalues    EBANDS =     -1385.95979831
  atomic energy  EATOM  =     37014.33504542
  Solvation  Ediel_sol  =         0.00000000
  ---------------------------------------------------
  free energy    TOTEN  =      -114.79647710 eV

  energy without entropy =     -114.79647710  energy(sigma->0) =     -114.79647710


--------------------------------------------------------------------------------------------------------




 average (electrostatic) potential at core
  the test charge radii are     1.1249  1.2538  0.6991  0.7215
  (the norm of the test charge is              1.0000)
       1 -78.1215       2 -78.1139       3 -78.1139       4 -78.1139       5 -78.0927
       6 -78.1137       7 -78.1139       8 -78.1137       9 -78.1183      10 -78.3637
      11 -78.3460      12 -78.3635      13 -78.3459      14 -78.3457      15 -78.3371
      16 -78.3636      17 -78.3372      18 -78.3372      19 -78.3429      20 -78.5940
      21 -78.5939      22 -78.3036      23 -78.5940      24 -78.3036      25 -78.3430
      26 -78.3430      27 -78.3036      28 -78.1363      29 -78.1989      30 -78.1988
      31 -78.1990      32 -78.1987      33 -78.1991      34 -78.1989      35 -78.1104
      36 -41.2711      37 -55.5277      38 -76.4011
 
 
 
 E-fermi :   0.7748     XC(G=0):  -6.0560     alpha+bet : -5.6948

 Fermi energy:         0.7748120114

 k-point     1 :       0.0000    0.0000    0.0000
  band No.  band energies     occupation 
      1     -22.0904      2.00000
      2      -7.9606      2.00000
      3      -6.4030      2.00000
      4      -5.6977      2.00000
      5      -5.3870      2.00000
      6      -5.2101      2.00000
      7      -5.1344      2.00000
      8      -5.1344      2.00000
      9      -5.1108      2.00000
     10      -5.0978      2.00000
     11      -5.0978      2.00000
     12      -5.0704      2.00000
     13      -5.0567      2.00000
     14      -5.0523      2.00000
     15      -5.0522      2.00000
     16      -5.0347      2.00000
     17      -5.0347      2.00000
     18      -5.0334      2.00000
     19      -5.0297      2.00000
     20      -5.0297      2.00000
     21      -4.9421      2.00000
     22      -4.9026      2.00000
     23      -4.9026      2.00000
     24      -4.8712      2.00000
     25      -4.8542      2.00000
     26      -4.8542      2.00000
     27      -4.8327      2.00000
     28      -4.7124      2.00000
     29      -4.6851      2.00000
     30      -4.6851      2.00000
     31      -4.6779      2.00000
     32      -4.6779      2.00000
     33      -4.6708      2.00000
     34      -4.6699      2.00000
     35      -4.6391      2.00000
     36      -4.6274      2.00000
     37      -4.6274      2.00000
     38      -4.6145      2.00000
     39      -4.6145      2.00000
     40      -4.5566      2.00000
     41      -4.5306      2.00000
     42      -4.5306      2.00000
     43      -4.5025      2.00000
     44      -4.4928      2.00000
     45      -4.4928      2.00000
     46      -4.3056      2.00000
     47      -4.3055      2.00000
     48      -4.2838      2.00000
     49      -4.2838      2.00000
     50      -4.2749      2.00000
     51      -4.2745      2.00000
     52      -4.2745      2.00000
     53      -4.2534      2.00000
     54      -4.2474      2.00000
     55      -4.2474      2.00000
     56      -4.1257      2.00000
     57      -4.1255      2.00000
     58      -4.0954      2.00000
     59      -4.0864      2.00000
     60      -3.9509      2.00000
     61      -3.9377      2.00000
     62      -3.9377      2.00000
     63      -3.9102      2.00000
     64      -3.9086      2.00000
     65      -3.9086      2.00000
     66      -3.8935      2.00000
     67      -3.8852      2.00000
     68      -3.8852      2.00000
     69      -3.8442      2.00000
     70      -3.8442      2.00000
     71      -3.7543      2.00000
     72      -3.7543      2.00000
     73      -3.7432      2.00000
     74      -3.7401      2.00000
     75      -3.7400      2.00000
     76      -3.7352      2.00000
     77      -3.7260      2.00000
     78      -3.7260      2.00000
     79      -3.7119      2.00000
     80      -3.7119      2.00000
     81      -3.6994      2.00000
     82      -3.6831      2.00000
     83      -3.6831      2.00000
     84      -3.6648      2.00000
     85      -3.6262      2.00000
     86      -3.6262      2.00000
     87      -3.6059      2.00000
     88      -3.6026      2.00000
     89      -3.6025      2.00000
     90      -3.5591      2.00000
     91      -3.5591      2.00000
     92      -3.5120      2.00000
     93      -3.5096      2.00000
     94      -3.5096      2.00000
     95      -3.5049      2.00000
     96      -3.5049      2.00000
     97      -3.4400      2.00000
     98      -3.4400      2.00000
     99      -3.4265      2.00000
    100      -3.4175      2.00000
    101      -3.4175      2.00000
    102      -3.3938      2.00000
    103      -3.3938      2.00000
    104      -3.2144      2.00000
    105      -3.2143      2.00000
    106      -3.2119      2.00000
    107      -3.1911      2.00000
    108      -3.1911      2.00000
    109      -3.1724      2.00000
    110      -3.1724      2.00000
    111      -3.1389      2.00000
    112      -3.1331      2.00000
    113      -3.1085      2.00000
    114      -3.1085      2.00000
    115      -3.0919      2.00000
    116      -3.0631      2.00000
    117      -3.0483      2.00000
    118      -3.0483      2.00000
    119      -2.9739      2.00000
    120      -2.9473      2.00000
    121      -2.9473      2.00000
    122      -2.9160      2.00000
    123      -2.9160      2.00000
    124      -2.8913      2.00000
    125      -2.8913      2.00000
    126      -2.8529      2.00000
    127      -2.8529      2.00000
    128      -2.8345      2.00000
    129      -2.8292      2.00000
    130      -2.8143      2.00000
    131      -2.8142      2.00000
    132      -2.8007      2.00000
    133      -2.8007      2.00000
    134      -2.7952      2.00000
    135      -2.7952      2.00000
    136      -2.7914      2.00000
    137      -2.7887      2.00000
    138      -2.7155      2.00000
    139      -2.7155      2.00000
    140      -2.6485      2.00000
    141      -2.6484      2.00000
    142      -2.6321      2.00000
    143      -2.6168      2.00000
    144      -2.6077      2.00000
    145      -2.6077      2.00000
    146      -2.6061      2.00000
    147      -2.5918      2.00000
    148      -2.5918      2.00000
    149      -2.5698      2.00000
    150      -2.5589      2.00000
    151      -2.5589      2.00000
    152      -2.5537      2.00000
    153      -2.5280      2.00000
    154      -2.5133      2.00000
    155      -2.4989      2.00000
    156      -2.4989      2.00000
    157      -2.4911      2.00000
    158      -2.4911      2.00000
    159      -2.4663      2.00000
    160      -2.4661      2.00000
    161      -2.4661      2.00000
    162      -2.4479      2.00000
    163      -2.4388      2.00000
    164      -2.4114      2.00000
    165      -2.4114      2.00000
    166      -2.3923      2.00000
    167      -2.3907      2.00000
    168      -2.3810      2.00000
    169      -2.3810      2.00000
    170      -2.3783      2.00000
    171      -2.3715      2.00000
    172      -2.3715      2.00000
    173      -2.3573      2.00000
    174      -2.3320      2.00000
    175      -2.3320      2.00000
    176      -2.3056      2.00000
    177      -2.3056      2.00000
    178      -2.2362      2.00000
    179      -2.2349      2.00000
    180      -2.2348      2.00000
    181      -2.2093      2.00000
    182      -2.2093      2.00000
    183      -2.1988      2.00000
    184      -2.1122      2.00000
    185      -2.1121      2.00000
    186      -2.1086      2.00000
    187      -2.1001      2.00000
    188      -2.1000      2.00000
    189      -2.0522      2.00000
    190      -1.3662      2.00000
    191      -1.3662      2.00000
    192      -1.3306      2.00000
    193      -1.3306      2.00000
    194      -1.3139      2.00000
    195      -1.1896      2.00000
    196      -0.0747      2.00000
    197       0.0934      2.00000
    198       0.0934      2.00000
    199       0.1476      2.00000
    200       0.3377      2.00000
    201       0.3377      2.00000
    202       0.4090      2.80536
    203       0.9485      0.00000
    204       0.9485      0.00000
    205       1.1961      0.00000
    206       1.4332      0.00000
    207       1.4332      0.00000
    208       2.1538      0.00000
    209       2.6176      0.00000
    210       2.6424      0.00000
    211       2.6424      0.00000
    212       3.1448      0.00000
    213       3.1448      0.00000
    214       3.8952      0.00000
    215       3.8952      0.00000
    216       3.9804      0.00000
    217       4.0706      0.00000
    218       4.2789      0.00000
    219       4.2789      0.00000
    220       4.6532      0.00000
    221       4.6533      0.00000
    222       4.7625      0.00000
    223       5.0181      0.00000
    224       5.0182      0.00000
    225       5.0233      0.00000
    226       5.0767      0.00000
    227       5.2400      0.00000
    228       5.2584      0.00000
    229       5.2585      0.00000
    230       5.2659      0.00000
    231       5.2660      0.00000
    232       5.3017      0.00000
    233       5.4811      0.00000
    234       5.7725      0.00000
    235       5.7725      0.00000
    236       6.2998      0.00000
    237       6.6657      0.00000
    238       6.6679      0.00000
    239       6.6680      0.00000
    240       6.7311      0.00000
    241       6.7598      0.00000
    242       6.8661      0.00000
    243       6.8665      0.00000
    244       7.0400      0.00000
    245       7.0409      0.00000
    246       7.0789      0.00000
    247       7.1403      0.00000
    248       7.1476      0.00000
    249       7.1499      0.00000
    250       7.2837      0.00000
    251       7.3521      0.00000
    252       7.4569      0.00000

 k-point     2 :       0.1250   -0.0000    0.0000
  band No.  band energies     occupation 
      1     -22.0904      2.00000
      2      -7.9598      2.00000
      3      -6.3596      2.00000
      4      -5.6757      2.00000
      5      -5.3623      2.00000
      6      -5.1954      2.00000
      7      -5.1623      2.00000
      8      -5.1269      2.00000
[...]
  0.000   0.000   0.000   0.000   0.000   0.000   0.000   0.000   0.000   0.000   0.000   0.000   0.000   0.000   0.000   0.000
  0.000   0.000   0.000   0.000   0.000   0.000   0.000   0.000   0.000   0.000   0.000   0.000   0.000   0.000   0.000   0.000
  0.000   0.000   0.000   0.000   0.000   0.000   0.000   0.000   0.000   0.000   1.000   0.000   0.000   0.000   0.000   0.000
  0.000   0.000   0.000   0.000   0.000   0.000   0.000   0.000   0.000   0.000   0.000   0.000   0.000   0.000   0.000   0.000
  0.000   0.000   0.000   0.000   0.000   0.000   0.000   0.000   0.000   0.000   0.000   0.000   0.000   0.000   0.000   0.000
  0.000   0.000   0.000   0.000   0.000   0.000   0.000   0.000   0.000   0.000   0.000   0.000   0.000   0.000   0.000   0.000
  0.000   0.000   0.000   0.000   0.000   0.000   0.000   0.000   0.000   0.000   0.000   0.000   0.000   0.000   0.000   0.000
  0.000   0.000   0.000   0.000   0.000   0.000   0.000   0.000   0.000   0.000   0.000   0.000   0.000   0.000   0.000   0.000
  0.000   0.000   0.000   0.000   0.000   0.000   0.000   0.000   0.000   0.000   0.000   0.000   0.000   0.000   0.000   0.000
  0.000   0.000   0.000   0.000   0.000   0.000   0.000   0.000   0.000   0.000   0.000   0.000   0.000   0.000   0.000   0.000


------------------------ aborting loop because EDIFF is reached ----------------------------------------





 total charge

# of ion       s       p       d       tot
------------------------------------------
    1        0.420   0.199   9.179   9.797
    2        0.413   0.204   9.178   9.794
    3        0.413   0.204   9.178   9.794
    4        0.413   0.204   9.178   9.794
    5        0.424   0.200   9.174   9.799
    6        0.413   0.204   9.178   9.794
    7        0.413   0.204   9.178   9.794
    8        0.413   0.204   9.178   9.794
    9        0.416   0.201   9.179   9.795
   10        0.411   0.269   9.160   9.840
   11        0.408   0.266   9.169   9.843
   12        0.411   0.269   9.160   9.840
   13        0.408   0.266   9.169   9.843
   14        0.408   0.266   9.169   9.843
   15        0.403   0.268   9.163   9.834
   16        0.411   0.269   9.160   9.840
   17        0.403   0.268   9.163   9.834
   18        0.403   0.268   9.163   9.834
   19        0.401   0.263   9.165   9.829
   20        0.450   0.306   9.131   9.887
   21        0.450   0.306   9.131   9.887
   22        0.392   0.270   9.167   9.829
   23        0.450   0.306   9.131   9.887
   24        0.392   0.270   9.167   9.829
   25        0.401   0.263   9.165   9.829
   26        0.401   0.263   9.165   9.829
   27        0.392   0.270   9.167   9.829
   28        0.404   0.198   9.177   9.779
   29        0.442   0.219   9.151   9.811
   30        0.442   0.219   9.151   9.811
   31        0.442   0.219   9.151   9.811
   32        0.442   0.219   9.151   9.811
   33        0.442   0.219   9.151   9.811
   34        0.442   0.219   9.151   9.811
   35        0.404   0.197   9.179   9.780
   36        0.641   0.631   3.152   4.423
   37        0.963   1.542   0.000   2.505
   38        1.611   3.529   0.000   5.140
--------------------------------------------------
tot         17.804  14.159 323.881 355.843
 
    CHARGE:  cpu time    0.3368: real time    0.3369
    FORLOC:  cpu time    0.0110: real time    0.0110
    FORNL :  cpu time    1.4833: real time    1.4834
    STRESS:  cpu time    4.4390: real time    4.4393
    FORCOR:  cpu time    0.0555: real time    0.0555
    FORHAR:  cpu time    0.0176: real time    0.0177
    OFIELD:  cpu time    0.0002: real time    0.0002

  FORCE on cell =-STRESS in cart. coord.  units (eV):
  Direction    XX          YY          ZZ          XY          YZ          ZX
  --------------------------------------------------------------------------------------
  Alpha Z   770.91865   770.91865   770.91865
  Ewald  116003.68869116003.68864************     0.00002    -0.00001     0.00003
  Hartree126264.03561126264.03558************     0.00001    -0.00000     0.00001
  E(xc)   -2094.56929 -2094.56935 -2101.23122     0.00005     0.00000    -0.00000
  Local  ************************252986.43396     0.00054    -0.00005    -0.00016
  n-local  -349.67734  -332.01015  -350.44278    10.04399    -0.41940     0.49524
  augment  3226.61119  3226.61133  3241.31353    -0.00015     0.00003    -0.00001
  Kinetic  5010.65675  5012.49206  5027.88787     3.27925     0.46481     0.10203
  Fock        0.00000     0.00000     0.00000     0.00000     0.00000     0.00000
  -------------------------------------------------------------------------------------
  Total      -9.00281    -9.00281     0.25294    -0.00000     0.00000    -0.00000
  in kB      -9.71674    -9.71674     0.27300    -0.00000     0.00000    -0.00000
  external pressure =       -6.39 kB  Pullay stress =        0.00 kB


 VOLUME and BASIS-vectors are now :
 -----------------------------------------------------------------------------
  energy-cutoff  :      500.00
  volume of cell :     1484.46
      direct lattice vectors                 reciprocal lattice vectors
     8.791366577  0.000000000  0.000000000     0.113747958 -0.065672414  0.000000000
     4.395683289  7.613546790  0.000000000     0.000000000  0.131344829  0.000000000
     0.000000000  0.000000000 22.178121567     0.000000000  0.000000000  0.045089481

  length of vectors
     8.791366577  8.791366577 22.178121567     0.131344829  0.131344829  0.045089481


 FORCES acting on ions
    electron-ion (+dipol)            ewald-force                    non-local-force                 convergence-correction
 -----------------------------------------------------------------------------------------------
   0.459E-04 -.283E-04 0.249E+04   -.953E-04 0.593E-04 -.249E+04   -.733E-19 0.196E-18 -.197E+01   -.115E-03 -.127E-03 0.186E+00
   -.620E-01 0.983E-01 0.249E+04   -.983E-02 -.241E+00 -.249E+04   0.111E+00 0.234E+00 -.157E+01   -.364E-01 -.929E-01 0.280E+00
   0.621E-01 0.983E-01 0.249E+04   0.995E-02 -.241E+00 -.249E+04   -.111E+00 0.234E+00 -.157E+01   0.359E-01 -.910E-01 0.281E+00
   0.542E-01 -.103E+00 0.249E+04   -.214E+00 0.112E+00 -.249E+04   0.258E+00 -.211E-01 -.157E+01   -.985E-01 0.151E-01 0.280E+00
   -.612E-05 -.192E-04 0.249E+04   0.980E-04 -.197E-05 -.249E+04   0.178E-17 0.148E-17 -.902E+00   0.622E-02 0.379E-02 0.447E+00
   -.542E-01 -.103E+00 0.249E+04   0.214E+00 0.112E+00 -.249E+04   -.258E+00 -.211E-01 -.157E+01   0.972E-01 0.160E-01 0.281E+00
   0.116E+00 0.450E-02 0.249E+04   -.204E+00 0.129E+00 -.249E+04   0.147E+00 -.213E+00 -.157E+01   -.605E-01 0.771E-01 0.281E+00
   -.116E+00 0.456E-02 0.249E+04   0.204E+00 0.129E+00 -.249E+04   -.147E+00 -.213E+00 -.157E+01   0.621E-01 0.761E-01 0.281E+00
   0.368E-04 -.128E-04 0.249E+04   0.792E-04 -.643E-04 -.249E+04   0.375E-18 -.104E-17 -.179E+01   -.664E-02 -.344E-02 0.256E+00
   0.282E+01 0.163E+01 0.838E+03   -.242E+01 -.140E+01 -.837E+03   -.402E+00 -.232E+00 -.740E+00   -.491E-01 -.282E-01 -.754E-01
   -.282E-04 0.182E+01 0.836E+03   0.400E-04 -.181E+01 -.836E+03   0.690E-12 0.105E+00 -.898E-01   0.620E-02 -.142E+00 -.976E-01
   -.282E+01 0.163E+01 0.838E+03   0.242E+01 -.140E+01 -.837E+03   0.402E+00 -.232E+00 -.740E+00   0.475E-01 -.272E-01 -.756E-01
   0.157E+01 -.909E+00 0.836E+03   -.157E+01 0.907E+00 -.836E+03   0.911E-01 -.526E-01 -.898E-01   -.120E+00 0.764E-01 -.972E-01
   -.157E+01 -.909E+00 0.836E+03   0.157E+01 0.907E+00 -.836E+03   -.911E-01 -.526E-01 -.898E-01   0.131E+00 0.754E-01 -.986E-01
   0.154E-04 -.499E+00 0.836E+03   -.108E-03 0.294E+00 -.835E+03   0.684E-12 0.104E+00 -.745E+00   -.156E-02 0.689E-01 -.655E-01
   -.779E-05 -.326E+01 0.838E+03   0.205E-04 0.279E+01 -.837E+03   0.305E-11 0.464E+00 -.740E+00   -.175E-03 0.549E-01 -.763E-01
   -.432E+00 0.249E+00 0.836E+03   0.255E+00 -.147E+00 -.835E+03   0.902E-01 -.521E-01 -.745E+00   0.591E-01 -.358E-01 -.657E-01
   0.432E+00 0.249E+00 0.836E+03   -.255E+00 -.147E+00 -.835E+03   -.902E-01 -.521E-01 -.745E+00   -.590E-01 -.341E-01 -.648E-01
   0.376E-04 -.419E+01 -.830E+03   -.126E-03 0.421E+01 0.830E+03   0.340E-12 0.518E-01 0.903E+00   0.429E-02 -.637E-01 -.237E+00
   -.224E+02 -.129E+02 -.830E+03   0.239E+02 0.138E+02 0.832E+03   -.134E+01 -.774E+00 -.127E+01   -.350E+00 -.202E+00 -.432E+00
   0.224E+02 -.129E+02 -.830E+03   -.239E+02 0.138E+02 0.832E+03   0.134E+01 -.774E+00 -.127E+01   0.359E+00 -.202E+00 -.432E+00
   -.103E+02 0.595E+01 -.827E+03   0.102E+02 -.590E+01 0.827E+03   0.262E+00 -.151E+00 0.357E+00   -.149E+00 0.918E-01 -.336E+00
   -.505E-04 0.258E+02 -.830E+03   0.376E-04 -.276E+02 0.832E+03   0.102E-10 0.155E+01 -.127E+01   -.735E-03 0.403E+00 -.433E+00
   0.103E+02 0.595E+01 -.827E+03   -.102E+02 -.590E+01 0.827E+03   -.262E+00 -.151E+00 0.357E+00   0.160E+00 0.916E-01 -.336E+00
   0.363E+01 0.209E+01 -.830E+03   -.365E+01 -.211E+01 0.830E+03   -.449E-01 -.259E-01 0.903E+00   0.616E-01 0.366E-01 -.238E+00
   -.363E+01 0.209E+01 -.830E+03   0.365E+01 -.211E+01 0.830E+03   0.449E-01 -.259E-01 0.903E+00   -.525E-01 0.367E-01 -.237E+00
   0.196E-04 -.119E+02 -.827E+03   0.109E-03 0.118E+02 0.827E+03   0.199E-11 0.303E+00 0.357E+00   0.432E-02 -.175E+00 -.336E+00
   0.540E-04 -.353E-04 -.241E+04   -.114E-03 0.768E-04 0.241E+04   0.147E-18 0.360E-19 0.188E+01   -.155E-04 0.155E-02 -.221E+00
   0.978E+00 -.349E+01 -.240E+04   0.216E+00 0.534E+01 0.240E+04   -.110E+01 -.171E+01 0.112E+01   -.113E+00 -.190E+00 -.203E+00
   -.978E+00 -.349E+01 -.240E+04   -.215E+00 0.534E+01 0.240E+04   0.110E+01 -.171E+01 0.112E+01   0.113E+00 -.188E+00 -.203E+00
   -.253E+01 0.259E+01 -.240E+04   0.473E+01 -.248E+01 0.240E+04   -.203E+01 -.988E-01 0.112E+01   -.226E+00 -.127E-01 -.203E+00
   0.253E+01 0.259E+01 -.240E+04   -.473E+01 -.248E+01 0.240E+04   0.203E+01 -.988E-01 0.112E+01   0.215E+00 -.120E-01 -.203E+00
   -.351E+01 0.897E+00 -.240E+04   0.452E+01 -.286E+01 0.240E+04   -.931E+00 0.181E+01 0.112E+01   -.107E+00 0.193E+00 -.203E+00
   0.351E+01 0.897E+00 -.240E+04   -.452E+01 -.286E+01 0.240E+04   0.931E+00 0.181E+01 0.112E+01   0.109E+00 0.192E+00 -.202E+00
   0.241E-04 -.125E-04 -.242E+04   0.104E-03 -.654E-04 0.242E+04   -.103E-17 -.350E-17 0.202E+01   -.644E-02 -.200E-02 -.200E+00
   -.145E-04 -.107E-05 -.967E+03   0.479E-04 0.590E-05 0.970E+03   -.204E-18 -.381E-19 -.217E+01   0.757E-03 -.105E-03 -.560E-01
   0.230E-05 -.785E-04 -.772E+03   0.153E-04 0.156E-06 0.754E+03   -.141E-18 -.302E-18 0.172E+02   0.125E-02 0.459E-03 0.363E-01
   0.235E-03 -.939E-04 -.143E+04   0.791E-05 0.538E-08 0.149E+04   0.103E-18 -.489E-18 -.578E+02   0.377E-02 0.212E-02 0.106E+00
 -----------------------------------------------------------------------------------------------
   0.578E-03 -.856E-03 0.539E+02   -.158E-13 0.190E-12 -.318E-11   0.554E-15 0.218E-15 -.511E+02   0.381E-01 0.102E-01 -.271E+01
 
 
 POSITION                                       TOTAL-FORCE (eV/Angst)
 -----------------------------------------------------------------------------------
      0.00000      0.00000      5.28219         0.000000     -0.000000     -0.048126
      2.93046      0.00000      5.28219         0.002993     -0.001240      0.021496
      5.86091      0.00000      5.28219        -0.002993     -0.001240      0.021496
      1.46523      2.53785      5.28219         0.000422      0.003212      0.021496
      4.39568      2.53785      5.28219         0.000000     -0.000000     -0.028201
      7.32614      2.53785      5.28219        -0.000422      0.003212      0.021496
      2.93046      5.07570      5.28219        -0.002570     -0.001972      0.021496
      5.86091      5.07570      5.28219         0.002570     -0.001972      0.021496
      8.79137      5.07570      5.28219         0.000000     -0.000000     -0.001567
      1.46523      0.84595      7.67490        -0.045546     -0.026296     -0.045218
      4.39568      0.84595      7.67490        -0.000000     -0.037184     -0.072202
      7.32614      0.84595      7.67490         0.045546     -0.026296     -0.045218
      2.93046      3.38380      7.67490        -0.032202      0.018592     -0.072202
      5.86091      3.38380      7.67490         0.032202      0.018592     -0.072202
      8.79137      3.38380      7.67490        -0.000000     -0.031976      0.014711
      4.39568      5.92165      7.67490         0.000000      0.052592     -0.045218
      7.32614      5.92165      7.67490        -0.027692      0.015988      0.014711
     10.25659      5.92165      7.67490         0.027692      0.015988      0.014711
      8.79137      1.69476     10.06939         0.000000      0.009048      0.047699
      2.92162      1.68680     10.02387        -0.120462     -0.069549     -0.127243
      5.86975      1.68680     10.02387         0.120462     -0.069549     -0.127243
     10.25272      4.23198     10.06895         0.016956     -0.009790      0.036370
      4.39568      4.23995     10.02387         0.000000      0.139097     -0.127243
      7.33001      4.23198     10.06895        -0.016956     -0.009790      0.036370
     11.71935      6.76617     10.06939        -0.007836     -0.004524      0.047699
      5.86339      6.76617     10.06939         0.007836     -0.004524      0.047699
      8.79137      6.76312     10.06895         0.000000      0.019579      0.036370
      0.00000      0.00000     12.45783         0.000000     -0.000000     -0.012411
      2.95723      0.04373     12.49962        -0.023388     -0.047042     -0.009807
      5.83413      0.04373     12.49962         0.023388     -0.047042     -0.009807
      1.51649      2.53918     12.49962        -0.052434      0.003266     -0.009807
      7.27488      2.53918     12.49962         0.052434      0.003266     -0.009807
      2.95494      5.03064     12.49962        -0.029046      0.043776     -0.009807
      5.83643      5.03064     12.49962         0.029046      0.043776     -0.009807
      8.79137      5.07570     12.47105         0.000000     -0.000000     -0.019109
      4.39568      2.53785     12.22632         0.000000     -0.000000      0.545666
      4.39568      2.53785     14.28842         0.000000     -0.000000     -0.088219
      4.39568      2.53785     15.46249         0.000000     -0.000000      0.019481
 -----------------------------------------------------------------------------------
    total drift:                                0.038656      0.009332      0.089697


--------------------------------------------------------------------------------------------------------



  FREE ENERGIE OF THE ION-ELECTRON SYSTEM (eV)
  ---------------------------------------------------
  free  energy   TOTEN  =      -114.79647710 eV

  energy  without entropy=     -114.79647710  energy(sigma->0) =     -114.79647710
 


--------------------------------------------------------------------------------------------------------


    POTLOK:  cpu time    0.0434: real time    0.0434


--------------------------------------------------------------------------------------------------------


 stress matrix after NEB project (eV)
     -9.00281     -0.00000     -0.00000
     -0.00000     -9.00281      0.00000
      0.00000      0.00000      0.25294
  FORCES: max atom, RMS     0.088219    0.014656
  FORCE total and by dimension    0.090344    0.088219
  Stress total and by dimension   12.734410    9.002811
     LOOP+:  cpu time   69.7660: real time   69.7775
 -----------------------------------------------------------------------------
|                                                                             |
|           W    W    AA    RRRRR   N    N  II  N    N   GGGG   !!!           |
|           W    W   A  A   R    R  NN   N  II  NN   N  G    G  !!!           |
|           W    W  A    A  R    R  N N  N  II  N N  N  G       !!!           |
|           W WW W  AAAAAA  RRRRR   N  N N  II  N  N N  G  GGG   !            |
|           WW  WW  A    A  R   R   N   NN  II  N   NN  G    G                |
|           W    W  A    A  R    R  N    N  II  N    N   GGGG   !!!           |
|                                                                             |
|     Tetrahedron method does not include variations of the Fermi             |
|     occupations, so forces and stress will be inaccurate. We suggest        |
|     using a different smearing scheme ISMEAR = 1 or 2 for metals in         |
|     relaxations.                                                            |
|                                                                             |
 -----------------------------------------------------------------------------

    4ORBIT:  cpu time    0.0000: real time    0.0000



 total charge

# of ion       s       p       d       tot
------------------------------------------
    1        0.420   0.199   9.179   9.797
    2        0.413   0.204   9.178   9.794
    3        0.413   0.204   9.178   9.794
    4        0.413   0.204   9.178   9.794
    5        0.424   0.200   9.174   9.799
    6        0.413   0.204   9.178   9.794
    7        0.413   0.204   9.178   9.794
    8        0.413   0.204   9.178   9.794
    9        0.416   0.201   9.179   9.795
   10        0.411   0.269   9.160   9.840
   11        0.408   0.266   9.169   9.843
   12        0.411   0.269   9.160   9.840
   13        0.408   0.266   9.169   9.843
   14        0.408   0.266   9.169   9.843
   15        0.403   0.268   9.163   9.834
   16        0.411   0.269   9.160   9.840
   17        0.403   0.268   9.163   9.834
   18        0.403   0.268   9.163   9.834
   19        0.401   0.263   9.165   9.829
   20        0.450   0.306   9.131   9.887
   21        0.450   0.306   9.131   9.887
   22        0.392   0.270   9.167   9.829
   23        0.450   0.306   9.131   9.887
   24        0.392   0.270   9.167   9.829
   25        0.401   0.263   9.165   9.829
   26        0.401   0.263   9.165   9.829
   27        0.392   0.270   9.167   9.829
   28        0.404   0.198   9.177   9.779
   29        0.442   0.219   9.151   9.811
   30        0.442   0.219   9.151   9.811
   31        0.442   0.219   9.151   9.811
   32        0.442   0.219   9.151   9.811
   33        0.442   0.219   9.151   9.811
   34        0.442   0.219   9.151   9.811
   35        0.404   0.197   9.179   9.780
   36        0.641   0.631   3.152   4.423
   37        0.963   1.542   0.000   2.505
   38        1.611   3.529   0.000   5.140
--------------------------------------------------
tot         17.804  14.159 323.881 355.843
 
 BZINTS: Fermi energy:    0.774812;  400.000000 electrons
         Band energy:-0.138596E+04;  BLOECHL correction:   -0.029596

 total amount of memory used by VASP MPI-rank0   124609. kBytes
=======================================================================

   base      :      30000. kBytes
   nonlr-proj:      15711. kBytes
   fftplans  :       4330. kBytes
   grid      :      18659. kBytes
   one-center:        590. kBytes
   wavefun   :      55319. kBytes
 
  
  
 General timing and accounting informations for this job:
 ========================================================
  
                  Total CPU time used (sec):       77.135
                            User time (sec):       74.269
                          System time (sec):        2.866
                         Elapsed time (sec):       77.554
  
                   Maximum memory used (kb):      381620.
                   Average memory used (kb):          N/A
  
                          Minor page faults:        73876
                          Major page faults:            0
                 Voluntary context switches:        10504
