PROCAR new format
# of k-points:   10         # of bands:  252         # of ions:   38

 k-point     1 :    0.00000000 0.00000000 0.00000000     weight = 0.01562500

band     1 # energy  -22.09042414 # occ.  2.00000000
 
ion      s      p      d    tot
    1  0.000  0.000  0.000  0.000
    2  0.000  0.000  0.000  0.000
    3  0.000  0.000  0.000  0.000
    4  0.000  0.000  0.000  0.000
    5  0.000  0.000  0.000  0.000
    6  0.000  0.000  0.000  0.000
    7  0.000  0.000  0.000  0.000
    8  0.000  0.000  0.000  0.000
    9  0.000  0.000  0.000  0.000
   10  0.000  0.000  0.000  0.000
   11  0.000  0.000  0.000  0.000
   12  0.000  0.000  0.000  0.000
   13  0.000  0.000  0.000  0.000
   14  0.000  0.000  0.000  0.000
   15  0.000  0.000  0.000  0.000
   16  0.000  0.000  0.000  0.000
   17  0.000  0.000  0.000  0.000
   18  0.000  0.000  0.000  0.000
   19  0.000  0.000  0.000  0.000
   20  0.000  0.000  0.000  0.000
   21  0.000  0.000  0.000  0.000
   22  0.000  0.000  0.000  0.000
   23  0.000  0.000  0.000  0.000
   24  0.000  0.000  0.000  0.000
   25  0.000  0.000  0.000  0.000
   26  0.000  0.000  0.000  0.000
   27  0.000  0.000  0.000  0.000
   28  0.000  0.000  0.000  0.000
   29  0.000  0.000  0.000  0.000
   30  0.000  0.000  0.000  0.000
   31  0.000  0.000  0.000  0.000
   32  0.000  0.000  0.000  0.000
   33  0.000  0.000  0.000  0.000
   34  0.000  0.000  0.000  0.000
   35  0.000  0.000  0.000  0.000
   36  0.000  0.000  0.000  0.000
   37  0.154  0.112  0.000  0.266
   38  0.639  0.092  0.000  0.730
tot    0.793  0.204  0.000  0.997
 
band     2 # energy   -7.96062921 # occ.  2.00000000
 
ion      s      p      d    tot
    1  0.000  0.000  0.000  0.000
    2  0.000  0.000  0.000  0.000
    3  0.000  0.000  0.000  0.000
    4  0.000  0.000  0.000  0.000
    5  0.000  0.000  0.000  0.000
    6  0.000  0.000  0.000  0.000
    7  0.000  0.000  0.000  0.000
    8  0.000  0.000  0.000  0.000
    9  0.000  0.000  0.000  0.000
   10  0.000  0.000  0.000  0.000
   11  0.000  0.000  0.000  0.000
   12  0.000  0.000  0.000  0.000
   13  0.000  0.000  0.000  0.000
   14  0.000  0.000  0.000  0.000
   15  0.000  0.000  0.000  0.000
   16  0.000  0.000  0.000  0.000
   17  0.000  0.000  0.000  0.000
   18  0.000  0.000  0.000  0.000
   19  0.000  0.000  0.000  0.000
   20  0.001  0.000  0.001  0.003
   21  0.001  0.000  0.001  0.003
   22  0.000  0.000  0.000  0.000
   23  0.001  0.000  0.001  0.003
   24  0.000  0.000  0.000  0.000
   25  0.000  0.000  0.000  0.000
   26  0.000  0.000  0.000  0.000
   27  0.000  0.000  0.000  0.000
   28  0.000  0.000  0.000  0.000
   29  0.001  0.000  0.001  0.002
   30  0.001  0.000  0.001  0.002
   31  0.001  0.000  0.001  0.002
   32  0.001  0.000  0.001  0.002
   33  0.001  0.000  0.001  0.002
   34  0.001  0.000  0.001  0.002
   35  0.000  0.000  0.000  0.000
   36  0.058  0.022  0.051  0.131
   37  0.273  0.004  0.000  0.277
   38  0.138  0.215  0.000  0.354
tot    0.479  0.244  0.059  0.781
 
band     3 # energy   -6.40301396 # occ.  2.00000000
 
ion      s      p      d    tot
    1  0.005  0.001  0.000  0.006
    2  0.005  0.000  0.000  0.005
    3  0.005  0.000  0.000  0.005
    4  0.005  0.000  0.000  0.005
    5  0.005  0.000  0.000  0.005
    6  0.005  0.000  0.000  0.005
    7  0.005  0.000  0.000  0.005
    8  0.005  0.000  0.000  0.005
    9  0.005  0.000  0.000  0.005
   10  0.021  0.000  0.000  0.021
   11  0.021  0.000  0.000  0.021
   12  0.021  0.000  0.000  0.021
   13  0.021  0.000  0.000  0.021
   14  0.021  0.000  0.000  0.021
   15  0.019  0.000  0.000  0.019
   16  0.021  0.000  0.000  0.021
   17  0.019  0.000  0.000  0.019
   18  0.019  0.000  0.000  0.019
   19  0.021  0.000  0.001  0.021
   20  0.028  0.000  0.001  0.029
   21  0.028  0.000  0.001  0.029
   22  0.020  0.000  0.000  0.021
   23  0.028  0.000  0.001  0.029
   24  0.020  0.000  0.000  0.021
   25  0.021  0.000  0.001  0.021
   26  0.021  0.000  0.001  0.021
   27  0.020  0.000  0.000  0.021
   28  0.005  0.000  0.000  0.006
   29  0.007  0.001  0.000  0.008
   30  0.007  0.001  0.000  0.008
   31  0.007  0.001  0.000  0.008
   32  0.007  0.001  0.000  0.008
   33  0.007  0.001  0.000  0.008
   34  0.007  0.001  0.000  0.008
   35  0.005  0.000  0.000  0.006
   36  0.027  0.001  0.000  0.028
   37  0.002  0.007  0.000  0.009
   38  0.006  0.027  0.000  0.033
tot    0.514  0.047  0.010  0.571
 
band     4 # energy   -5.69773204 # occ.  2.00000000
 
ion      s      p      d    tot
    1  0.005  0.000  0.001  0.006
    2  0.007  0.000  0.000  0.008
    3  0.007  0.000  0.000  0.008
    4  0.007  0.000  0.000  0.008
    5  0.007  0.000  0.000  0.008
    6  0.007  0.000  0.000  0.008
    7  0.007  0.000  0.000  0.008
    8  0.007  0.000  0.000  0.008
    9  0.008  0.000  0.000  0.009
   10  0.009  0.000  0.008  0.017
   11  0.011  0.000  0.003  0.015
   12  0.009  0.000  0.008  0.017
   13  0.011  0.000  0.003  0.015
   14  0.011  0.000  0.003  0.015
   15  0.014  0.000  0.003  0.017
   16  0.009  0.000  0.008  0.017
   17  0.014  0.000  0.003  0.017
   18  0.014  0.000  0.003  0.017
   19  0.000  0.001  0.003  0.004
   20  0.005  0.003  0.018  0.026
   21  0.005  0.003  0.018  0.026
   22  0.000  0.001  0.002  0.003
   23  0.005  0.003  0.018  0.026
   24  0.000  0.001  0.002  0.003
   25  0.000  0.001  0.003  0.004
   26  0.000  0.001  0.003  0.004
   27  0.000  0.001  0.002  0.003
   28  0.002  0.000  0.002  0.004
   29  0.007  0.000  0.007  0.014
   30  0.007  0.000  0.007  0.014
   31  0.007  0.000  0.007  0.014
   32  0.007  0.000  0.007  0.014
   33  0.007  0.000  0.007  0.014
   34  0.007  0.000  0.007  0.014
   35  0.002  0.000  0.002  0.003
   36  0.102  0.001  0.015  0.118
   37  0.001  0.069  0.000  0.069
   38  0.014  0.126  0.000  0.140
tot    0.340  0.217  0.173  0.730
 
band     5 # energy   -5.38701669 # occ.  2.00000000
 
ion      s      p      d    tot
    1  0.002  0.000  0.001  0.004
    2  0.001  0.000  0.000  0.001
    3  0.001  0.000  0.000  0.001
    4  0.001  0.000  0.000  0.001
    5  0.000  0.000  0.000  0.001
    6  0.001  0.000  0.000  0.001
    7  0.001  0.000  0.000  0.001
    8  0.001  0.000  0.000  0.001
    9  0.000  0.000  0.000  0.000
   10  0.007  0.000  0.016  0.024
   11  0.003  0.000  0.022  0.025
   12  0.007  0.000  0.016  0.023
   13  0.003  0.000  0.022  0.025
   14  0.003  0.000  0.022  0.025
   15  0.001  0.001  0.014  0.016
   16  0.007  0.000  0.016  0.023
   17  0.001  0.001  0.014  0.016
   18  0.001  0.001  0.014  0.016
   19  0.013  0.000  0.024  0.038
   20  0.004  0.000  0.064  0.068
   21  0.004  0.000  0.064  0.068
   22  0.016  0.000  0.021  0.038
   23  0.004  0.000  0.064  0.068
   24  0.016  0.000  0.021  0.038
   25  0.013  0.000  0.024  0.038
   26  0.013  0.000  0.024  0.038
   27  0.016  0.000  0.021  0.038
   28  0.001  0.001  0.003  0.005
   29  0.000  0.001  0.008  0.009
   30  0.000  0.001  0.008  0.009
   31  0.000  0.001  0.008  0.009
   32  0.000  0.001  0.008  0.009
   33  0.000  0.001  0.008  0.009
   34  0.000  0.001  0.008  0.009
   35  0.001  0.001  0.003  0.005
   36  0.027  0.002  0.004  0.032
   37  0.001  0.023  0.000  0.024
   38  0.003  0.034  0.000  0.036
tot    0.176  0.069  0.550  0.794
 
band     6 # energy   -5.21008359 # occ.  2.00000000
 
ion      s      p      d    tot
    1  0.017  0.000  0.011  0.028
    2  0.009  0.000  0.013  0.022
    3  0.009  0.000  0.013  0.022
    4  0.009  0.000  0.013  0.022
    5  0.005  0.000  0.011  0.016
    6  0.009  0.000  0.013  0.022
    7  0.009  0.000  0.013  0.022
    8  0.009  0.000  0.013  0.022
    9  0.007  0.000  0.011  0.018
   10  0.001  0.000  0.023  0.025
   11  0.000  0.000  0.003  0.004
   12  0.001  0.000  0.023  0.025
   13  0.000  0.000  0.003  0.004
   14  0.000  0.000  0.003  0.004
   15  0.001  0.001  0.002  0.004
   16  0.001  0.000  0.023  0.025
   17  0.001  0.001  0.002  0.004
   18  0.001  0.001  0.002  0.004
   19  0.000  0.001  0.018  0.019
   20  0.001  0.000  0.071  0.072
   21  0.001  0.000  0.071  0.072
   22  0.007  0.000  0.003  0.010
   23  0.001  0.000  0.071  0.072
   24  0.007  0.000  0.003  0.010
   25  0.000  0.001  0.018  0.019
   26  0.000  0.001  0.018  0.019
   27  0.007  0.000  0.003  0.010
   28  0.007  0.000  0.003  0.010
   29  0.008  0.000  0.008  0.016
   30  0.008  0.000  0.008  0.016
   31  0.008  0.000  0.008  0.016
   32  0.008  0.000  0.008  0.016
   33  0.008  0.000  0.008  0.016
   34  0.008  0.000  0.008  0.016
   35  0.015  0.001  0.003  0.019
   36  0.000  0.000  0.036  0.036
   37  0.001  0.009  0.000  0.010
   38  0.001  0.009  0.000  0.010
tot    0.183  0.028  0.564  0.775
 
band     7 # energy   -5.13440477 # occ.  2.00000000
 
ion      s      p      d    tot
    1  0.000  0.000  0.006  0.006
    2  0.000  0.000  0.002  0.002
    3  0.000  0.000  0.002  0.002
    4  0.000  0.000  0.002  0.002
    5  0.000  0.000  0.002  0.002
    6  0.001  0.000  0.002  0.002
    7  0.000  0.000  0.002  0.002
    8  0.000  0.000  0.001  0.002
    9  0.000  0.000  0.002  0.002
   10  0.007  0.001  0.015  0.023
   11  0.000  0.001  0.019  0.020
   12  0.004  0.001  0.014  0.019
   13  0.000  0.000  0.017  0.017
   14  0.000  0.000  0.014  0.014
   15  0.000  0.000  0.010  0.011
   16  0.001  0.001  0.014  0.015
   17  0.002  0.000  0.008  0.010
   18  0.004  0.000  0.006  0.010
   19  0.001  0.001  0.024  0.026
   20  0.019  0.000  0.016  0.035
   21  0.010  0.000  0.069  0.079
   22  0.000  0.001  0.025  0.026
   23  0.001  0.000  0.120  0.121
   24  0.000  0.000  0.023  0.024
   25  0.016  0.000  0.027  0.043
   26  0.008  0.001  0.025  0.034
   27  0.000  0.001  0.027  0.028
   28  0.000  0.000  0.003  0.004
   29  0.000  0.000  0.005  0.005
   30  0.000  0.000  0.005  0.005
   31  0.000  0.000  0.006  0.007
   32  0.000  0.000  0.008  0.008
   33  0.000  0.000  0.006  0.006
   34  0.000  0.000  0.007  0.007
   35  0.000  0.000  0.001  0.001
   36  0.000  0.000  0.021  0.021
   37  0.000  0.041  0.000  0.041
   38  0.000  0.102  0.000  0.102
tot    0.077  0.153  0.553  0.783
 
band     8 # energy   -5.13438259 # occ.  2.00000000
 
ion      s      p      d    tot
    1  0.000  0.000  0.006  0.006
    2  0.000  0.000  0.001  0.002
    3  0.001  0.000  0.002  0.002
    4  0.000  0.000  0.001  0.002
    5  0.000  0.000  0.002  0.002
    6  0.000  0.000  0.002  0.002
    7  0.000  0.000  0.002  0.002
    8  0.000  0.000  0.002  0.002
    9  0.000  0.000  0.002  0.002
   10  0.001  0.001  0.014  0.015
   11  0.000  0.000  0.014  0.014
   12  0.004  0.001  0.014  0.019
   13  0.000  0.000  0.016  0.017
   14  0.000  0.001  0.020  0.020
   15  0.004  0.000  0.006  0.010
   16  0.007  0.001  0.015  0.023
   17  0.002  0.000  0.008  0.010
   18  0.000  0.000  0.010  0.011
   19  0.015  0.000  0.027  0.043
   20  0.001  0.000  0.121  0.122
   21  0.010  0.000  0.067  0.078
   22  0.000  0.001  0.025  0.026
   23  0.019  0.000  0.017  0.036
   24  0.000  0.001  0.027  0.028
   25  0.001  0.001  0.024  0.025
   26  0.008  0.001  0.025  0.034
   27  0.000  0.000  0.023  0.024
   28  0.000  0.000  0.003  0.004
   29  0.000  0.000  0.007  0.007
   30  0.000  0.000  0.008  0.008
   31  0.000  0.000  0.006  0.006
   32  0.000  0.000  0.005  0.005
   33  0.000  0.000  0.006  0.007
   34  0.000  0.000  0.005  0.005
   35  0.000  0.000  0.001  0.001
   36  0.000  0.000  0.021  0.021
   37  0.000  0.041  0.000  0.041
   38  0.000  0.101  0.000  0.101
tot    0.077  0.153  0.553  0.783
 
band     9 # energy   -5.11082057 # occ.  2.00000000
 
ion      s      p      d    tot
    1  0.007  0.000  0.010  0.017
    2  0.008  0.000  0.020  0.028
    3  0.008  0.000  0.020  0.028
    4  0.008  0.000  0.020  0.028
    5  0.013  0.000  0.026  0.040
    6  0.008  0.000  0.020  0.028
    7  0.008  0.000  0.020  0.028
    8  0.008  0.000  0.020  0.028
    9  0.006  0.000  0.017  0.023
   10  0.001  0.001  0.003  0.004
   11  0.002  0.000  0.038  0.040
   12  0.001  0.001  0.003  0.004
   13  0.002  0.000  0.038  0.040
   14  0.002  0.000  0.038  0.040
   15  0.001  0.000  0.025  0.026
   16  0.001  0.001  0.003  0.004
   17  0.001  0.000  0.025  0.026
   18  0.001  0.000  0.025  0.026
   19  0.003  0.000  0.012  0.016
   20  0.002  0.000  0.065  0.067
   21  0.002  0.000  0.064  0.067
   22  0.002  0.000  0.011  0.013
   23  0.002  0.000  0.065  0.067
   24  0.002  0.000  0.011  0.013
   25  0.003  0.000  0.012  0.016
   26  0.003  0.000  0.012  0.016
   27  0.002  0.000  0.011  0.013
   28  0.000  0.000  0.000  0.001
   29  0.001  0.000  0.008  0.009
   30  0.001  0.000  0.008  0.009
   31  0.001  0.000  0.008  0.009
   32  0.001  0.000  0.008  0.009
   33  0.001  0.000  0.008  0.009
   34  0.001  0.000  0.008  0.009
   35  0.001  0.000  0.000  0.001
   36  0.005  0.001  0.006  0.012
   37  0.000  0.000  0.000  0.000
   38  0.000  0.000  0.000  0.001
tot    0.119  0.009  0.684  0.812
 
band    10 # energy   -5.09781951 # occ.  2.00000000
 
ion      s      p      d    tot
    1  0.000  0.000  0.005  0.005
    2  0.001  0.000  0.004  0.005
    3  0.001  0.001  0.006  0.008
    4  0.000  0.000  0.005  0.006
    5  0.000  0.000  0.008  0.008
    6  0.001  0.000  0.007  0.008
    7  0.000  0.000  0.003  0.003
    8  0.000  0.000  0.002  0.003
    9  0.000  0.000  0.001  0.001
   10  0.004  0.001  0.061  0.065
   11  0.029  0.001  0.022  0.052
   12  0.001  0.000  0.095  0.096
   13  0.002  0.001  0.085  0.089
   14  0.015  0.001  0.056  0.072
   15  0.006  0.000  0.035  0.041
   16  0.008  0.001  0.021  0.030
   17  0.000  0.001  0.008  0.010
   18  0.003  0.001  0.021  0.024
   19  0.001  0.000  0.014  0.014
   20  0.004  0.001  0.039  0.044
   21  0.001  0.001  0.033  0.035
   22  0.001  0.000  0.015  0.016
   23  0.008  0.001  0.046  0.055
   24  0.004  0.000  0.012  0.017
   25  0.000  0.000  0.018  0.019
   26  0.000  0.000  0.023  0.023
   27  0.008  0.001  0.009  0.018
   28  0.000  0.000  0.001  0.001
   29  0.000  0.000  0.004  0.004
   30  0.000  0.000  0.003  0.003
   31  0.001  0.000  0.004  0.005
   32  0.001  0.000  0.003  0.004
   33  0.001  0.000  0.005  0.006
   34  0.001  0.000  0.005  0.006
   35  0.000  0.000  0.005  0.005
   36  0.000  0.000  0.006  0.007
   37  0.000  0.002  0.000  0.002
   38  0.000  0.005  0.000  0.005
tot    0.102  0.022  0.691  0.815
 
band    11 # energy   -5.09781513 # occ.  2.00000000
 
ion      s      p      d    tot
    1  0.000  0.000  0.005  0.005
    2  0.000  0.000  0.005  0.006
    3  0.000  0.000  0.003  0.003
    4  0.001  0.000  0.004  0.005
    5  0.000  0.000  0.008  0.008
    6  0.000  0.000  0.002  0.003
    7  0.001  0.001  0.006  0.008
    8  0.001  0.000  0.007  0.008
    9  0.000  0.000  0.001  0.001
   10  0.004  0.001  0.057  0.062
   11  0.002  0.001  0.087  0.090
   12  0.008  0.001  0.023  0.031
   13  0.028  0.001  0.024  0.053
   14  0.016  0.001  0.053  0.070
   15  0.000  0.001  0.007  0.009
   16  0.000  0.000  0.097  0.097
   17  0.006  0.000  0.035  0.040
   18  0.003  0.001  0.022  0.026
   19  0.000  0.000  0.023  0.023
   20  0.005  0.001  0.040  0.045
   21  0.008  0.001  0.045  0.054
   22  0.008  0.001  0.010  0.018
   23  0.000  0.001  0.033  0.034
   24  0.004  0.001  0.012  0.017
   25  0.000  0.000  0.018  0.019
   26  0.001  0.000  0.014  0.015
   27  0.000  0.000  0.015  0.016
   28  0.000  0.000  0.001  0.001
   29  0.001  0.000  0.004  0.005
   30  0.001  0.000  0.005  0.006
   31  0.000  0.000  0.004  0.004
   32  0.001  0.000  0.005  0.006
   33  0.000  0.000  0.003  0.003
   34  0.001  0.000  0.003  0.004
   35  0.000  0.000  0.005  0.005
   36  0.000  0.000  0.006  0.007
   37  0.000  0.002  0.000  0.002
   38  0.000  0.005  0.000  0.005
tot    0.102  0.022  0.691  0.815
 
band    12 # energy   -5.07035429 # occ.  2.00000000
 
ion      s      p      d    tot
    1  0.000  0.000  0.001  0.001
    2  0.000  0.000  0.007  0.008
    3  0.000  0.000  0.007  0.008
    4  0.000  0.000  0.007  0.008
    5  0.006  0.001  0.001  0.008
    6  0.000  0.000  0.007  0.008
    7  0.000  0.000  0.007  0.008
    8  0.000  0.000  0.007  0.008
    9  0.000  0.000  0.010  0.010
   10  0.008  0.001  0.010  0.018
   11  0.013  0.001  0.035  0.049
   12  0.008  0.001  0.010  0.018
   13  0.013  0.001  0.035  0.049
   14  0.013  0.001  0.035  0.049
   15  0.003  0.000  0.056  0.059
   16  0.008  0.001  0.010  0.018
   17  0.003  0.000  0.056  0.059
   18  0.003  0.000  0.056  0.059
   19  0.011  0.001  0.026  0.038
   20  0.006  0.001  0.021  0.028
   21  0.006  0.001  0.021  0.028
   22  0.000  0.000  0.034  0.035
   23  0.006  0.001  0.021  0.028
   24  0.000  0.000  0.034  0.035
   25  0.011  0.001  0.026  0.038
   26  0.011  0.001  0.026  0.038
   27  0.000  0.000  0.034  0.035
   28  0.003  0.001  0.004  0.007
   29  0.000  0.000  0.006  0.006
   30  0.000  0.000  0.006  0.006
   31  0.000  0.000  0.006  0.006
   32  0.000  0.000  0.006  0.006
   33  0.000  0.000  0.006  0.006
   34  0.000  0.000  0.006  0.006
   35  0.002  0.000  0.001  0.003
   36  0.001  0.000  0.001  0.002
   37  0.000  0.000  0.000  0.000
   38  0.000  0.000  0.000  0.000
tot    0.136  0.019  0.639  0.794
 
band    13 # energy   -5.05667126 # occ.  2.00000000
 
ion      s      p      d    tot
    1  0.000  0.001  0.027  0.028
    2  0.001  0.000  0.007  0.008
    3  0.001  0.000  0.007  0.008
    4  0.001  0.000  0.007  0.008
    5  0.000  0.000  0.000  0.000
    6  0.001  0.000  0.007  0.008
    7  0.001  0.000  0.007  0.008
    8  0.001  0.000  0.007  0.008
    9  0.008  0.001  0.000  0.009
   10  0.006  0.000  0.088  0.094
   11  0.002  0.001  0.042  0.045
   12  0.006  0.000  0.088  0.094
   13  0.002  0.001  0.042  0.045
   14  0.002  0.001  0.042  0.045
   15  0.010  0.001  0.009  0.019
   16  0.006  0.000  0.088  0.094
   17  0.010  0.001  0.009  0.019
   18  0.010  0.001  0.009  0.019
   19  0.001  0.000  0.023  0.024
   20  0.003  0.000  0.007  0.010
   21  0.003  0.000  0.007  0.010
   22  0.000  0.000  0.019  0.019
   23  0.003  0.000  0.007  0.010
   24  0.000  0.000  0.019  0.019
   25  0.001  0.000  0.023  0.024
   26  0.001  0.000  0.023  0.024
   27  0.000  0.000  0.019  0.019
   28  0.006  0.000  0.008  0.014
   29  0.002  0.000  0.010  0.012
   30  0.002  0.000  0.010  0.012
   31  0.002  0.000  0.010  0.012
   32  0.002  0.000  0.010  0.012
   33  0.002  0.000  0.010  0.012
   34  0.002  0.000  0.010  0.012
   35  0.001  0.000  0.004  0.005
   36  0.000  0.002  0.000  0.003
   37  0.000  0.003  0.000  0.003
   38  0.000  0.004  0.000  0.004
tot    0.097  0.019  0.707  0.823
 
band    14 # energy   -5.05228959 # occ.  2.00000000
 
ion      s      p      d    tot
    1  0.000  0.000  0.004  0.004
    2  0.000  0.000  0.003  0.003
    3  0.002  0.000  0.002  0.004
    4  0.000  0.000  0.003  0.003
    5  0.000  0.000  0.007  0.008
    6  0.001  0.000  0.003  0.004
    7  0.002  0.000  0.002  0.004
    8  0.001  0.000  0.003  0.004
    9  0.000  0.000  0.002  0.002
   10  0.000  0.000  0.003  0.003
   11  0.001  0.000  0.011  0.011
   12  0.000  0.000  0.007  0.007
   13  0.001  0.000  0.011  0.011
   14  0.002  0.000  0.017  0.020
   15  0.001  0.000  0.007  0.008
   16  0.000  0.000  0.007  0.008
   17  0.001  0.000  0.007  0.008
   18  0.003  0.000  0.006  0.009
   19  0.000  0.000  0.011  0.012
   20  0.010  0.000  0.018  0.028
   21  0.003  0.000  0.048  0.051
   22  0.001  0.000  0.035  0.036
   23  0.002  0.000  0.050  0.052
   24  0.004  0.000  0.006  0.010
   25  0.001  0.000  0.024  0.026
   26  0.000  0.000  0.011  0.012
   27  0.001  0.000  0.036  0.037
   28  0.000  0.000  0.007  0.007
   29  0.003  0.000  0.002  0.006
   30  0.000  0.000  0.007  0.007
   31  0.003  0.000  0.002  0.006
   32  0.003  0.000  0.003  0.006
   33  0.000  0.000  0.007  0.007
   34  0.003  0.000  0.003  0.006
   35  0.000  0.000  0.004  0.004
   36  0.000  0.004  0.005  0.010
   37  0.000  0.084  0.000  0.084
   38  0.000  0.223  0.000  0.223
tot    0.049  0.317  0.383  0.749
 
band    15 # energy   -5.05224675 # occ.  2.00000000
 
ion      s      p      d    tot
    1  0.000  0.000  0.004  0.004
    2  0.002  0.000  0.002  0.004
    3  0.000  0.000  0.003  0.003
    4  0.002  0.000  0.002  0.004
    5  0.000  0.000  0.007  0.008
    6  0.001  0.000  0.002  0.003
    7  0.000  0.000  0.003  0.003
    8  0.001  0.000  0.002  0.003
    9  0.000  0.000  0.002  0.002
   10  0.000  0.000  0.009  0.009
   11  0.002  0.000  0.015  0.017
   12  0.000  0.000  0.004  0.005
   13  0.002  0.000  0.015  0.017
   14  0.000  0.000  0.009  0.009
   15  0.002  0.000  0.006  0.008
   16  0.000  0.000  0.004  0.005
   17  0.002  0.000  0.006  0.008
   18  0.000  0.000  0.007  0.008
   19  0.001  0.000  0.020  0.021
   20  0.000  0.000  0.059  0.060
   21  0.007  0.000  0.029  0.036
   22  0.003  0.000  0.016  0.020
   23  0.007  0.000  0.028  0.035
   24  0.000  0.000  0.046  0.046
   25  0.000  0.000  0.007  0.007
   26  0.001  0.000  0.020  0.021
   27  0.003  0.000  0.015  0.019
   28  0.000  0.000  0.007  0.007
   29  0.001  0.000  0.005  0.006
   30  0.004  0.000  0.001  0.006
   31  0.001  0.000  0.006  0.006
   32  0.001  0.000  0.005  0.007
   33  0.004  0.000  0.001  0.006
   34  0.001  0.000  0.005  0.007
   35  0.000  0.000  0.004  0.004
   36  0.000  0.004  0.005  0.010
   37  0.000  0.084  0.000  0.084
   38  0.000  0.223  0.000  0.223
tot    0.049  0.316  0.384  0.749
 
band    16 # energy   -5.03473384 # occ.  2.00000000
 
ion      s      p      d    tot
    1  0.000  0.001  0.007  0.008
    2  0.003  0.001  0.007  0.011
    3  0.002  0.000  0.003  0.005
    4  0.004  0.001  0.006  0.011
    5  0.000  0.000  0.005  0.005
    6  0.000  0.000  0.005  0.005
    7  0.003  0.001  0.003  0.007
    8  0.000  0.000  0.006  0.007
    9  0.000  0.000  0.008  0.009
   10  0.019  0.000  0.020  0.039
   11  0.000  0.000  0.021  0.021
   12  0.002  0.001  0.035  0.038
   13  0.000  0.000  0.019  0.019
   14  0.000  0.000  0.025  0.026
   15  0.006  0.000  0.051  0.056
   16  0.008  0.000  0.030  0.038
   17  0.002  0.000  0.072  0.074
   18  0.013  0.000  0.005  0.019
   19  0.003  0.000  0.031  0.035
   20  0.000  0.001  0.018  0.019
   21  0.000  0.000  0.019  0.020
   22  0.001  0.000  0.017  0.019
   23  0.000  0.000  0.019  0.019
   24  0.011  0.000  0.015  0.025
   25  0.008  0.000  0.006  0.014
   26  0.001  0.000  0.043  0.044
   27  0.004  0.000  0.017  0.021
   28  0.000  0.000  0.006  0.006
   29  0.000  0.000  0.007  0.008
   30  0.002  0.000  0.002  0.004
   31  0.000  0.000  0.006  0.006
   32  0.002  0.001  0.005  0.008
   33  0.001  0.000  0.002  0.003
   34  0.002  0.001  0.006  0.009
   35  0.000  0.000  0.003  0.004
   36  0.000  0.000  0.007  0.007
   37  0.000  0.032  0.000  0.032
   38  0.000  0.083  0.000  0.083
tot    0.098  0.128  0.558  0.784
 
band    17 # energy   -5.03471216 # occ.  2.00000000
 
ion      s      p      d    tot
    1  0.000  0.001  0.007  0.008
    2  0.001  0.000  0.004  0.005
    3  0.002  0.001  0.007  0.010
    4  0.000  0.000  0.005  0.005
    5  0.000  0.000  0.005  0.005
    6  0.004  0.001  0.005  0.010
    7  0.001  0.001  0.007  0.009
    8  0.003  0.001  0.004  0.008
    9  0.000  0.000  0.008  0.009
   10  0.000  0.001  0.037  0.038
   11  0.000  0.000  0.022  0.023
   12  0.017  0.000  0.022  0.038
   13  0.000  0.000  0.024  0.025
   14  0.000  0.000  0.018  0.019
   15  0.008  0.000  0.034  0.043
   16  0.012  0.000  0.026  0.038
   17  0.012  0.000  0.013  0.025
   18  0.000  0.000  0.080  0.081
   19  0.005  0.000  0.022  0.027
   20  0.000  0.000  0.019  0.020
   21  0.000  0.001  0.018  0.019
   22  0.009  0.000  0.015  0.025
   23  0.000  0.000  0.018  0.019
   24  0.000  0.000  0.018  0.018
   25  0.000  0.000  0.048  0.048
   26  0.007  0.000  0.010  0.018
   27  0.007  0.000  0.016  0.023
   28  0.000  0.000  0.006  0.006
   29  0.002  0.001  0.002  0.005
   30  0.001  0.001  0.008  0.009
   31  0.002  0.001  0.003  0.007
   32  0.000  0.000  0.005  0.005
   33  0.001  0.001  0.007  0.010
   34  0.000  0.000  0.003  0.004
   35  0.000  0.000  0.003  0.004
   36  0.000  0.000  0.007  0.007
   37  0.000  0.032  0.000  0.032
   38  0.000  0.084  0.000  0.084
tot    0.098  0.128  0.558  0.784
 
band    18 # energy   -5.03344366 # occ.  2.00000000
 
ion      s      p      d    tot
    1  0.000  0.000  0.002  0.002
    2  0.001  0.000  0.009  0.010
    3  0.001  0.000  0.009  0.010
    4  0.001  0.000  0.009  0.010
    5  0.000  0.000  0.001  0.001
    6  0.001  0.000  0.009  0.010
    7  0.001  0.000  0.009  0.010
    8  0.001  0.000  0.009  0.010
    9  0.006  0.000  0.013  0.019
   10  0.001  0.000  0.019  0.020
   11  0.000  0.000  0.006  0.006
   12  0.001  0.000  0.019  0.020
   13  0.000  0.000  0.006  0.006
   14  0.000  0.000  0.006  0.006
   15  0.001  0.000  0.041  0.043
   16  0.001  0.000  0.019  0.020
   17  0.001  0.000  0.042  0.043
   18  0.001  0.000  0.041  0.043
   19  0.004  0.001  0.022  0.027
   20  0.003  0.000  0.031  0.034
   21  0.003  0.000  0.030  0.033
   22  0.002  0.000  0.066  0.068
   23  0.003  0.000  0.031  0.034
   24  0.002  0.000  0.067  0.069
   25  0.004  0.001  0.022  0.026
   26  0.004  0.001  0.022  0.027
   27  0.002  0.000  0.066  0.068
   28  0.008  0.001  0.000  0.009
   29  0.003  0.000  0.013  0.017
   30  0.003  0.000  0.013  0.017
   31  0.003  0.000  0.013  0.017
   32  0.003  0.000  0.013  0.017
   33  0.003  0.000  0.013  0.017
   34  0.003  0.000  0.013  0.017
   35  0.005  0.000  0.029  0.035
   36  0.000  0.001  0.003  0.004
   37  0.000  0.000  0.000  0.000
   38  0.000  0.000  0.000  0.000
tot    0.082  0.009  0.736  0.827
 
band    19 # energy   -5.02972323 # occ.  2.00000000
 
ion      s      p      d    tot
    1  0.000  0.000  0.007  0.007
    2  0.001  0.000  0.006  0.008
    3  0.001  0.000  0.005  0.006
    4  0.000  0.000  0.008  0.008
    5  0.000  0.000  0.003  0.003
    6  0.001  0.000  0.005  0.006
    7  0.000  0.000  0.008  0.008
    8  0.001  0.000  0.006  0.007
    9  0.000  0.000  0.016  0.016
   10  0.001  0.000  0.035  0.036
   11  0.001  0.000  0.026  0.028
   12  0.000  0.000  0.005  0.006
   13  0.000  0.000  0.056  0.056
   14  0.001  0.000  0.022  0.023
   15  0.003  0.000  0.040  0.044
   16  0.001  0.000  0.031  0.032
   17  0.000  0.000  0.071  0.071
   18  0.004  0.000  0.035  0.039
   19  0.003  0.000  0.033  0.037
   20  0.000  0.000  0.043  0.044
   21  0.000  0.000  0.006  0.007
   22  0.000  0.000  0.058  0.058
   23  0.000  0.000  0.038  0.039
   24  0.007  0.000  0.036  0.043
   25  0.004  0.000  0.024  0.028
   26  0.000  0.000  0.090  0.090
   27  0.006  0.000  0.039  0.045
   28  0.000  0.000  0.006  0.006
   29  0.000  0.000  0.008  0.009
   30  0.001  0.000  0.004  0.005
   31  0.001  0.000  0.005  0.006
   32  0.000  0.000  0.005  0.005
   33  0.001  0.000  0.004  0.005
   34  0.000  0.000  0.008  0.009
   35  0.000  0.000  0.012  0.012
   36  0.000  0.000  0.001  0.001
   37  0.000  0.001  0.000  0.001
   38  0.000  0.003  0.000  0.003
tot    0.038  0.009  0.805  0.853
 
band    20 # energy   -5.02968732 # occ.  2.00000000
 
ion      s      p      d    tot
    1  0.000  0.000  0.007  0.007
    2  0.000  0.000  0.006  0.007
    3  0.001  0.000  0.008  0.009
    4  0.001  0.000  0.004  0.006
    5  0.000  0.000  0.003  0.003
    6  0.001  0.000  0.008  0.009
    7  0.001  0.000  0.005  0.006
    8  0.000  0.000  0.007  0.007
    9  0.000  0.000  0.016  0.016
   10  0.000  0.000  0.012  0.013
   11  0.001  0.000  0.043  0.043
   12  0.001  0.000  0.043  0.044
   13  0.002  0.000  0.013  0.015
   14  0.000  0.000  0.048  0.048
   15  0.002  0.000  0.057  0.059
   16  0.000  0.000  0.017  0.017
   17  0.005  0.000  0.026  0.031
   18  0.001  0.000  0.063  0.064
   19  0.001  0.000  0.065  0.066
   20  0.000  0.000  0.015  0.015
   21  0.000  0.000  0.053  0.053
   22  0.008  0.000  0.032  0.040
   23  0.000  0.000  0.020  0.021
   24  0.002  0.000  0.053  0.054
   25  0.001  0.000  0.074  0.075
   26  0.005  0.000  0.008  0.013
   27  0.003  0.000  0.049  0.052
   28  0.000  0.000  0.006  0.006
   29  0.001  0.000  0.003  0.004
   30  0.001  0.000  0.007  0.008
   31  0.000  0.000  0.007  0.007
   32  0.001  0.000  0.007  0.008
   33  0.000  0.000  0.007  0.007
   34  0.001  0.000  0.003  0.004
   35  0.000  0.000  0.012  0.012
   36  0.000  0.000  0.001  0.001
   37  0.000  0.001  0.000  0.001
   38  0.000  0.003  0.000  0.003
tot    0.038  0.009  0.805  0.853
 
band    21 # energy   -4.94211248 # occ.  2.00000000
 
ion      s      p      d    tot
    1  0.004  0.000  0.000  0.004
    2  0.000  0.000  0.006  0.006
    3  0.000  0.000  0.006  0.006
    4  0.000  0.000  0.006  0.006
    5  0.002  0.001  0.018  0.021
    6  0.000  0.000  0.006  0.006
    7  0.000  0.000  0.006  0.006
    8  0.000  0.000  0.006  0.006
    9  0.000  0.000  0.003  0.003
   10  0.001  0.000  0.005  0.006
   11  0.001  0.001  0.075  0.077
   12  0.001  0.000  0.005  0.006
   13  0.001  0.001  0.075  0.077
   14  0.001  0.001  0.075  0.077
   15  0.002  0.000  0.026  0.028
   16  0.001  0.000  0.005  0.006