PROCAR new format
# of k-points:   10         # of bands:  252         # of ions:   37

 k-point     1 :    0.00000000 0.00000000 0.00000000     weight = 0.01562500

band     1 # energy  -16.88727383 # occ.  2.00000000
 
ion      s      p      d    tot
    1  0.000  0.000  0.000  0.000
    2  0.000  0.000  0.000  0.000
    3  0.000  0.000  0.000  0.000
    4  0.000  0.000  0.000  0.000
    5  0.000  0.000  0.000  0.000
    6  0.000  0.000  0.000  0.000
    7  0.000  0.000  0.000  0.000
    8  0.000  0.000  0.000  0.000
    9  0.000  0.000  0.000  0.000
   10  0.000  0.000  0.000  0.000
   11  0.000  0.000  0.000  0.000
   12  0.000  0.000  0.000  0.000
   13  0.000  0.000  0.000  0.000
   14  0.000  0.000  0.000  0.000
   15  0.000  0.000  0.000  0.000
   16  0.000  0.000  0.000  0.000
   17  0.000  0.000  0.000  0.000
   18  0.000  0.000  0.000  0.000
   19  0.000  0.000  0.000  0.000
   20  0.000  0.000  0.000  0.000
   21  0.000  0.000  0.000  0.000
   22  0.000  0.000  0.000  0.000
   23  0.000  0.000  0.000  0.000
   24  0.000  0.000  0.000  0.000
   25  0.000  0.000  0.000  0.000
   26  0.000  0.000  0.000  0.000
   27  0.000  0.000  0.000  0.000
   28  0.000  0.000  0.000  0.000
   29  0.000  0.000  0.000  0.000
   30  0.000  0.000  0.000  0.000
   31  0.000  0.000  0.000  0.000
   32  0.000  0.000  0.000  0.000
   33  0.000  0.000  0.000  0.000
   34  0.000  0.000  0.000  0.000
   35  0.000  0.000  0.000  0.000
   36  0.025  0.035  0.057  0.116
   37  0.766  0.010  0.000  0.776
tot    0.791  0.045  0.057  0.893
 
band     2 # energy   -8.89193208 # occ.  2.00000000
 
ion      s      p      d    tot
    1  0.007  0.001  0.000  0.007
    2  0.007  0.001  0.000  0.007
    3  0.007  0.001  0.000  0.007
    4  0.007  0.001  0.000  0.007
    5  0.006  0.001  0.000  0.007
    6  0.007  0.001  0.000  0.007
    7  0.007  0.001  0.000  0.007
    8  0.007  0.001  0.000  0.007
    9  0.007  0.001  0.000  0.007
   10  0.025  0.000  0.000  0.025
   11  0.024  0.000  0.000  0.025
   12  0.025  0.000  0.000  0.025
   13  0.024  0.000  0.000  0.025
   14  0.024  0.000  0.000  0.025
   15  0.025  0.000  0.000  0.025
   16  0.025  0.000  0.000  0.025
   17  0.025  0.000  0.000  0.025
   18  0.025  0.000  0.000  0.025
   19  0.025  0.000  0.000  0.026
   20  0.024  0.000  0.000  0.024
   21  0.024  0.000  0.000  0.024
   22  0.025  0.000  0.000  0.025
   23  0.024  0.000  0.000  0.024
   24  0.025  0.000  0.000  0.025
   25  0.025  0.000  0.000  0.026
   26  0.025  0.000  0.000  0.026
   27  0.025  0.000  0.000  0.025
   28  0.007  0.001  0.000  0.008
   29  0.007  0.001  0.000  0.007
   30  0.007  0.001  0.000  0.007
   31  0.007  0.001  0.000  0.007
   32  0.007  0.001  0.000  0.007
   33  0.007  0.001  0.000  0.007
   34  0.007  0.001  0.000  0.007
   35  0.007  0.001  0.000  0.008
   36  0.007  0.002  0.000  0.009
   37  0.000  0.000  0.000  0.000
tot    0.567  0.017  0.001  0.585
 
band     3 # energy   -7.58130298 # occ.  2.00000000
 
ion      s      p      d    tot
    1  0.018  0.001  0.000  0.019
    2  0.018  0.001  0.001  0.019
    3  0.018  0.001  0.001  0.019
    4  0.018  0.001  0.001  0.019
    5  0.018  0.001  0.000  0.019
    6  0.018  0.001  0.001  0.019
    7  0.018  0.001  0.001  0.019
    8  0.018  0.001  0.001  0.019
    9  0.018  0.001  0.001  0.019
   10  0.010  0.002  0.001  0.013
   11  0.010  0.002  0.001  0.013
   12  0.010  0.002  0.001  0.013
   13  0.010  0.002  0.001  0.013
   14  0.010  0.002  0.001  0.013
   15  0.010  0.002  0.001  0.013
   16  0.010  0.002  0.001  0.013
   17  0.010  0.002  0.001  0.013
   18  0.010  0.002  0.001  0.013
   19  0.011  0.002  0.001  0.014
   20  0.009  0.002  0.001  0.011
   21  0.009  0.002  0.001  0.011
   22  0.011  0.002  0.001  0.014
   23  0.009  0.002  0.001  0.011
   24  0.011  0.002  0.001  0.014
   25  0.011  0.002  0.001  0.014
   26  0.011  0.002  0.001  0.014
   27  0.011  0.002  0.001  0.014
   28  0.020  0.001  0.001  0.021
   29  0.018  0.001  0.001  0.020
   30  0.018  0.001  0.001  0.020
   31  0.018  0.001  0.001  0.020
   32  0.018  0.001  0.001  0.020
   33  0.018  0.001  0.001  0.020
   34  0.018  0.001  0.001  0.020
   35  0.020  0.001  0.001  0.021
   36  0.018  0.002  0.003  0.022
   37  0.000  0.000  0.000  0.001
tot    0.511  0.056  0.022  0.588
 
band     4 # energy   -6.01671467 # occ.  2.00000000
 
ion      s      p      d    tot
    1  0.014  0.000  0.005  0.019
    2  0.013  0.000  0.005  0.018
    3  0.013  0.000  0.005  0.018
    4  0.013  0.000  0.005  0.018
    5  0.005  0.000  0.006  0.011
    6  0.013  0.000  0.005  0.018
    7  0.013  0.000  0.005  0.018
    8  0.013  0.000  0.005  0.018
    9  0.022  0.000  0.003  0.026
   10  0.002  0.003  0.002  0.008
   11  0.011  0.005  0.001  0.016
   12  0.002  0.003  0.002  0.008
   13  0.011  0.005  0.001  0.016
   14  0.011  0.005  0.001  0.016
   15  0.000  0.002  0.003  0.006
   16  0.002  0.003  0.002  0.008
   17  0.000  0.002  0.003  0.006
   18  0.000  0.002  0.003  0.006
   19  0.001  0.003  0.005  0.009
   20  0.020  0.004  0.003  0.028
   21  0.020  0.004  0.003  0.028
   22  0.000  0.004  0.004  0.008
   23  0.020  0.004  0.003  0.028
   24  0.000  0.004  0.004  0.008
   25  0.001  0.003  0.005  0.009
   26  0.001  0.003  0.005  0.009
   27  0.000  0.004  0.004  0.008
   28  0.019  0.000  0.005  0.024
   29  0.015  0.000  0.007  0.023
   30  0.015  0.000  0.007  0.023
   31  0.015  0.000  0.007  0.023
   32  0.015  0.000  0.007  0.023
   33  0.015  0.000  0.007  0.023
   34  0.015  0.000  0.007  0.023
   35  0.025  0.000  0.005  0.030
   36  0.003  0.001  0.068  0.072
   37  0.001  0.007  0.000  0.007
tot    0.362  0.072  0.221  0.655
 
band     5 # energy   -5.93403457 # occ.  2.00000000
 
ion      s      p      d    tot
    1  0.000  0.003  0.005  0.008
    2  0.008  0.002  0.002  0.012
    3  0.004  0.001  0.002  0.007
    4  0.008  0.002  0.002  0.012
    5  0.000  0.001  0.002  0.003
    6  0.001  0.001  0.002  0.003
    7  0.004  0.001  0.002  0.007
    8  0.000  0.001  0.002  0.003
    9  0.000  0.000  0.003  0.004
   10  0.055  0.003  0.005  0.063
   11  0.002  0.009  0.003  0.014
   12  0.014  0.005  0.009  0.028
   13  0.002  0.009  0.003  0.014
   14  0.007  0.000  0.005  0.013
   15  0.005  0.002  0.010  0.017
   16  0.013  0.005  0.009  0.027
   17  0.006  0.002  0.010  0.017
   18  0.022  0.004  0.002  0.028
   19  0.012  0.008  0.006  0.027
   20  0.049  0.005  0.003  0.057
   21  0.013  0.001  0.014  0.027
   22  0.000  0.008  0.004  0.012
   23  0.012  0.001  0.014  0.027
   24  0.000  0.001  0.005  0.006
   25  0.051  0.001  0.007  0.059
   26  0.013  0.008  0.006  0.028
   27  0.000  0.008  0.004  0.012
   28  0.000  0.004  0.005  0.009
   29  0.010  0.003  0.003  0.016
   30  0.010  0.002  0.003  0.015
   31  0.010  0.003  0.003  0.016
   32  0.000  0.001  0.003  0.004
   33  0.010  0.002  0.003  0.015
   34  0.000  0.001  0.003  0.004
   35  0.000  0.001  0.003  0.003
   36  0.000  0.002  0.028  0.030
   37  0.000  0.000  0.000  0.000
tot    0.343  0.113  0.196  0.651
 
band     6 # energy   -5.93388463 # occ.  2.00000000
 
ion      s      p      d    tot
    1  0.000  0.003  0.005  0.008
    2  0.001  0.001  0.002  0.003
    3  0.004  0.001  0.002  0.008
    4  0.001  0.001  0.002  0.003
    5  0.000  0.001  0.002  0.003
    6  0.008  0.002  0.002  0.012
    7  0.004  0.001  0.002  0.008
    8  0.008  0.002  0.002  0.012
    9  0.000  0.000  0.003  0.004
   10  0.000  0.005  0.011  0.016
   11  0.006  0.003  0.005  0.013
   12  0.041  0.004  0.006  0.051
   13  0.005  0.003  0.005  0.013
   14  0.000  0.012  0.002  0.014
   15  0.017  0.003  0.005  0.025
   16  0.042  0.004  0.006  0.051
   17  0.016  0.003  0.005  0.024
   18  0.000  0.001  0.012  0.013
   19  0.038  0.004  0.007  0.049
   20  0.000  0.000  0.017  0.017
   21  0.037  0.003  0.007  0.047
   22  0.000  0.004  0.005  0.008
   23  0.037  0.003  0.007  0.048
   24  0.000  0.011  0.004  0.014
   25  0.000  0.010  0.006  0.017
   26  0.038  0.004  0.007  0.048
   27  0.000  0.003  0.005  0.008
   28  0.000  0.004  0.005  0.009
   29  0.003  0.001  0.003  0.008
   30  0.003  0.002  0.003  0.008
   31  0.003  0.001  0.003  0.008
   32  0.013  0.003  0.003  0.019
   33  0.004  0.002  0.003  0.009
   34  0.013  0.003  0.003  0.019
   35  0.000  0.001  0.003  0.003
   36  0.000  0.002  0.028  0.030
   37  0.000  0.000  0.000  0.000
tot    0.343  0.113  0.196  0.651
 
band     7 # energy   -5.91410636 # occ.  2.00000000
 
ion      s      p      d    tot
    1  0.000  0.000  0.002  0.002
    2  0.008  0.002  0.002  0.013
    3  0.005  0.001  0.002  0.008
    4  0.008  0.002  0.002  0.012
    5  0.000  0.002  0.005  0.007
    6  0.001  0.001  0.002  0.003
    7  0.004  0.001  0.002  0.008
    8  0.000  0.001  0.002  0.003
    9  0.000  0.003  0.004  0.006
   10  0.000  0.007  0.006  0.013
   11  0.038  0.004  0.006  0.047
   12  0.001  0.003  0.004  0.009
   13  0.037  0.004  0.006  0.047
   14  0.000  0.001  0.015  0.016
   15  0.026  0.003  0.006  0.035
   16  0.001  0.003  0.004  0.009
   17  0.026  0.004  0.006  0.035
   18  0.000  0.011  0.004  0.016
   19  0.011  0.004  0.005  0.020
   20  0.000  0.015  0.001  0.016
   21  0.014  0.004  0.005  0.023
   22  0.049  0.004  0.007  0.059
   23  0.014  0.004  0.005  0.023
   24  0.000  0.004  0.015  0.018
   25  0.000  0.004  0.012  0.016
   26  0.011  0.004  0.005  0.020
   27  0.050  0.004  0.006  0.060
   28  0.000  0.000  0.004  0.004
   29  0.011  0.003  0.003  0.016
   30  0.007  0.003  0.003  0.013
   31  0.011  0.003  0.003  0.016
   32  0.000  0.001  0.003  0.004
   33  0.007  0.003  0.003  0.013
   34  0.000  0.001  0.003  0.004
   35  0.000  0.004  0.006  0.010
   36  0.000  0.003  0.019  0.022
   37  0.000  0.000  0.000  0.000
tot    0.342  0.116  0.188  0.646
 
band     8 # energy   -5.91396452 # occ.  2.00000000
 
ion      s      p      d    tot
    1  0.000  0.000  0.002  0.002
    2  0.001  0.001  0.002  0.003
    3  0.004  0.001  0.002  0.008
    4  0.001  0.001  0.002  0.003
    5  0.000  0.002  0.005  0.007
    6  0.008  0.002  0.002  0.012
    7  0.004  0.002  0.002  0.008
    8  0.008  0.002  0.002  0.012
    9  0.000  0.003  0.004  0.006
   10  0.001  0.002  0.004  0.007
   11  0.012  0.002  0.012  0.026
   12  0.000  0.006  0.006  0.012
   13  0.013  0.002  0.012  0.027
   14  0.050  0.005  0.003  0.057
   15  0.008  0.009  0.005  0.022
   16  0.000  0.006  0.006  0.012
   17  0.009  0.009  0.005  0.022
   18  0.035  0.001  0.006  0.042
   19  0.004  0.004  0.010  0.017
   20  0.019  0.000  0.007  0.026
   21  0.005  0.011  0.002  0.018
   22  0.017  0.004  0.012  0.033
   23  0.005  0.011  0.002  0.018
   24  0.065  0.004  0.004  0.073
   25  0.015  0.004  0.003  0.021
   26  0.004  0.004  0.010  0.017
   27  0.016  0.004  0.012  0.032
   28  0.000  0.000  0.004  0.004
   29  0.001  0.001  0.003  0.006
   30  0.005  0.001  0.003  0.009
   31  0.002  0.001  0.003  0.006
   32  0.012  0.003  0.003  0.018
   33  0.005  0.002  0.003  0.009
   34  0.012  0.003  0.003  0.018
   35  0.000  0.004  0.006  0.010
   36  0.000  0.003  0.019  0.022
   37  0.000  0.000  0.000  0.000
tot    0.342  0.116  0.188  0.646
 
band     9 # energy   -5.90331909 # occ.  2.00000000
 
ion      s      p      d    tot
    1  0.020  0.003  0.001  0.023
    2  0.000  0.002  0.004  0.006
    3  0.000  0.002  0.004  0.005
    4  0.000  0.002  0.004  0.006
    5  0.000  0.000  0.000  0.001
    6  0.000  0.002  0.004  0.006
    7  0.000  0.002  0.004  0.005
    8  0.000  0.002  0.004  0.006
    9  0.009  0.002  0.001  0.011
   10  0.027  0.005  0.007  0.038
   11  0.003  0.001  0.011  0.015
   12  0.027  0.005  0.007  0.038
   13  0.003  0.001  0.011  0.015
   14  0.004  0.001  0.011  0.015
   15  0.015  0.008  0.003  0.027
   16  0.027  0.005  0.007  0.038
   17  0.015  0.008  0.003  0.027
   18  0.015  0.008  0.003  0.026
   19  0.020  0.009  0.002  0.032
   20  0.000  0.002  0.010  0.012
   21  0.000  0.002  0.010  0.012
   22  0.028  0.003  0.008  0.040
   23  0.000  0.002  0.010  0.012
   24  0.029  0.003  0.008  0.041
   25  0.020  0.009  0.002  0.032
   26  0.020  0.009  0.002  0.032
   27  0.028  0.003  0.008  0.040
   28  0.021  0.003  0.000  0.024
   29  0.000  0.002  0.004  0.007
   30  0.000  0.002  0.004  0.007
   31  0.000  0.002  0.004  0.007
   32  0.000  0.002  0.004  0.007
   33  0.000  0.002  0.004  0.007
   34  0.000  0.002  0.004  0.007
   35  0.014  0.003  0.002  0.019
   36  0.000  0.000  0.000  0.000
   37  0.000  0.000  0.000  0.000
tot    0.348  0.117  0.175  0.640
 
band    10 # energy   -5.83158506 # occ.  2.00000000
 
ion      s      p      d    tot
    1  0.000  0.001  0.001  0.002
    2  0.003  0.002  0.005  0.010
    3  0.003  0.002  0.005  0.010
    4  0.003  0.002  0.005  0.010
    5  0.037  0.003  0.000  0.040
    6  0.003  0.002  0.005  0.010
    7  0.003  0.002  0.005  0.010
    8  0.003  0.002  0.005  0.010
    9  0.001  0.002  0.004  0.007
   10  0.005  0.005  0.007  0.017
   11  0.019  0.008  0.005  0.031
   12  0.005  0.005  0.007  0.017
   13  0.019  0.008  0.005  0.031
   14  0.019  0.008  0.005  0.031
   15  0.023  0.001  0.010  0.034
   16  0.005  0.005  0.007  0.017
   17  0.023  0.001  0.010  0.034
   18  0.023  0.002  0.010  0.034
   19  0.013  0.002  0.009  0.024
   20  0.019  0.006  0.005  0.029
   21  0.019  0.006  0.005  0.029
   22  0.006  0.006  0.005  0.017
   23  0.019  0.006  0.005  0.029
   24  0.006  0.006  0.005  0.017
   25  0.013  0.002  0.009  0.024
   26  0.013  0.002  0.009  0.024
   27  0.006  0.006  0.005  0.017
   28  0.000  0.001  0.003  0.004
   29  0.003  0.001  0.004  0.008
   30  0.003  0.001  0.004  0.008
   31  0.003  0.001  0.004  0.008
   32  0.003  0.001  0.004  0.008
   33  0.003  0.001  0.004  0.008
   34  0.003  0.001  0.004  0.008
   35  0.000  0.001  0.002  0.002
   36  0.030  0.004  0.000  0.034
   37  0.001  0.003  0.000  0.004
tot    0.355  0.111  0.186  0.653
 
band    11 # energy   -5.24449962 # occ.  2.00000000
 
ion      s      p      d    tot
    1  0.010  0.000  0.008  0.019
    2  0.006  0.001  0.009  0.016
    3  0.006  0.001  0.009  0.016
    4  0.006  0.001  0.009  0.016
    5  0.000  0.002  0.010  0.012
    6  0.006  0.001  0.009  0.016
    7  0.006  0.001  0.009  0.016
    8  0.006  0.001  0.009  0.016
    9  0.017  0.000  0.006  0.023
   10  0.005  0.000  0.021  0.027
   11  0.016  0.001  0.016  0.032
   12  0.005  0.000  0.021  0.027
   13  0.016  0.001  0.016  0.032
   14  0.016  0.001  0.016  0.032
   15  0.001  0.001  0.018  0.020
   16  0.005  0.000  0.021  0.027
   17  0.001  0.001  0.018  0.020
   18  0.001  0.001  0.018  0.020
   19  0.002  0.000  0.011  0.012
   20  0.007  0.002  0.023  0.032
   21  0.007  0.002  0.023  0.032
   22  0.002  0.000  0.012  0.014
   23  0.007  0.002  0.023  0.032
   24  0.002  0.000  0.012  0.014
   25  0.002  0.000  0.011  0.012
   26  0.002  0.000  0.011  0.012
   27  0.002  0.000  0.012  0.014
   28  0.002  0.000  0.002  0.004
   29  0.001  0.000  0.005  0.006
   30  0.001  0.000  0.005  0.006
   31  0.001  0.000  0.005  0.006
   32  0.001  0.000  0.005  0.006
   33  0.001  0.000  0.005  0.006
   34  0.001  0.000  0.005  0.006
   35  0.002  0.000  0.002  0.005
   36  0.002  0.001  0.140  0.143
   37  0.005  0.039  0.000  0.044
tot    0.181  0.061  0.554  0.795
 
band    12 # energy   -5.20860956 # occ.  2.00000000
 
ion      s      p      d    tot
    1  0.000  0.003  0.009  0.012
    2  0.002  0.002  0.004  0.008
    3  0.018  0.004  0.005  0.026
    4  0.002  0.002  0.004  0.008
    5  0.000  0.000  0.009  0.009
    6  0.008  0.002  0.004  0.015
    7  0.018  0.004  0.005  0.026
    8  0.008  0.002  0.004  0.015
    9  0.000  0.005  0.008  0.013
   10  0.008  0.001  0.006  0.015
   11  0.001  0.002  0.013  0.016
   12  0.002  0.004  0.012  0.018
   13  0.002  0.002  0.013  0.016
   14  0.006  0.002  0.006  0.014
   15  0.007  0.001  0.016  0.024
   16  0.002  0.004  0.012  0.018
   17  0.007  0.001  0.016  0.024
   18  0.028  0.004  0.004  0.036
   19  0.002  0.002  0.010  0.014
   20  0.000  0.001  0.010  0.010
   21  0.000  0.002  0.015  0.017
   22  0.002  0.002  0.022  0.026
   23  0.000  0.002  0.015  0.017
   24  0.008  0.004  0.002  0.014
   25  0.008  0.006  0.009  0.023
   26  0.002  0.002  0.010  0.014
   27  0.002  0.002  0.023  0.026
   28  0.000  0.004  0.006  0.010
   29  0.004  0.002  0.009  0.015
   30  0.026  0.002  0.008  0.037
   31  0.004  0.002  0.009  0.015
   32  0.009  0.003  0.008  0.020
   33  0.026  0.002  0.008  0.037
   34  0.009  0.003  0.008  0.020
   35  0.000  0.005  0.008  0.013
   36  0.000  0.000  0.077  0.077
   37  0.000  0.000  0.000  0.000
tot    0.223  0.087  0.408  0.719
 
band    13 # energy   -5.20857516 # occ.  2.00000000
 
ion      s      p      d    tot
    1  0.000  0.003  0.009  0.012
    2  0.017  0.003  0.005  0.025
    3  0.001  0.001  0.004  0.006
    4  0.017  0.003  0.005  0.025
    5  0.000  0.000  0.009  0.009
    6  0.011  0.003  0.005  0.018
    7  0.001  0.001  0.004  0.006
    8  0.011  0.003  0.005  0.018
    9  0.000  0.005  0.008  0.013
   10  0.000  0.005  0.014  0.018
   11  0.005  0.002  0.008  0.015
   12  0.006  0.002  0.008  0.016
   13  0.005  0.002  0.008  0.015
   14  0.000  0.002  0.015  0.017
   15  0.021  0.003  0.008  0.032
   16  0.006  0.002  0.008  0.016
   17  0.021  0.003  0.008  0.032
   18  0.000  0.001  0.020  0.021
   19  0.006  0.004  0.009  0.020
   20  0.000  0.002  0.017  0.020
   21  0.000  0.001  0.011  0.012
   22  0.006  0.003  0.009  0.018
   23  0.000  0.001  0.011  0.012
   24  0.000  0.001  0.029  0.030
   25  0.000  0.000  0.010  0.011
   26  0.006  0.004  0.009  0.020
   27  0.006  0.003  0.009  0.018
   28  0.000  0.004  0.006  0.010
   29  0.022  0.003  0.008  0.033
   30  0.000  0.002  0.008  0.011
   31  0.022  0.003  0.008  0.033
   32  0.017  0.002  0.009  0.028
   33  0.000  0.002  0.008  0.011
   34  0.017  0.002  0.009  0.027
   35  0.000  0.005  0.008  0.013
   36  0.000  0.000  0.077  0.077
   37  0.000  0.000  0.000  0.000
tot    0.223  0.087  0.408  0.719
 
band    14 # energy   -5.15583253 # occ.  2.00000000
 
ion      s      p      d    tot
    1  0.000  0.003  0.010  0.013
    2  0.002  0.002  0.005  0.009
    3  0.020  0.004  0.006  0.030
    4  0.001  0.002  0.005  0.008
    5  0.000  0.006  0.010  0.016
    6  0.010  0.003  0.005  0.017
    7  0.021  0.004  0.006  0.031
    8  0.011  0.003  0.005  0.020
    9  0.000  0.000  0.012  0.012
   10  0.000  0.000  0.021  0.021
   11  0.017  0.003  0.009  0.029
   12  0.015  0.003  0.011  0.029
   13  0.015  0.003  0.010  0.028
   14  0.000  0.003  0.024  0.027
   15  0.000  0.001  0.010  0.011
   16  0.016  0.004  0.010  0.030
   17  0.000  0.001  0.010  0.012
   18  0.000  0.004  0.015  0.020
   19  0.002  0.001  0.009  0.012
   20  0.000  0.001  0.028  0.028
   21  0.012  0.005  0.010  0.027
   22  0.003  0.002  0.010  0.016
   23  0.013  0.005  0.009  0.027
   24  0.000  0.001  0.010  0.011
   25  0.000  0.002  0.023  0.025
   26  0.002  0.001  0.010  0.013
   27  0.004  0.002  0.010  0.016
   28  0.000  0.002  0.009  0.011
   29  0.002  0.001  0.005  0.009
   30  0.015  0.004  0.006  0.025
   31  0.001  0.001  0.005  0.008
   32  0.006  0.002  0.005  0.013
   33  0.016  0.004  0.006  0.026
   34  0.008  0.002  0.005  0.015
   35  0.000  0.000  0.008  0.008
   36  0.000  0.007  0.059  0.066
   37  0.000  0.002  0.000  0.002
tot    0.212  0.095  0.413  0.720
 
band    15 # energy   -5.15581857 # occ.  2.00000000
 
ion      s      p      d    tot
    1  0.000  0.003  0.010  0.013
    2  0.020  0.004  0.005  0.029
    3  0.002  0.002  0.005  0.009
    4  0.021  0.004  0.005  0.030
    5  0.000  0.006  0.010  0.016
    6  0.012  0.003  0.006  0.021
    7  0.001  0.002  0.005  0.008
    8  0.011  0.003  0.006  0.019
    9  0.000  0.001  0.012  0.012
   10  0.021  0.005  0.007  0.033
   11  0.005  0.003  0.020  0.027
   12  0.006  0.001  0.017  0.024
   13  0.006  0.003  0.018  0.027
   14  0.021  0.003  0.005  0.029
   15  0.000  0.003  0.014  0.017
   16  0.004  0.001  0.018  0.023
   17  0.000  0.003  0.013  0.016
   18  0.000  0.000  0.008  0.009
   19  0.000  0.002  0.019  0.022
   20  0.017  0.006  0.003  0.027
   21  0.005  0.002  0.021  0.028
   22  0.001  0.001  0.010  0.013
   23  0.004  0.002  0.022  0.028
   24  0.005  0.003  0.011  0.018
   25  0.002  0.001  0.005  0.008
   26  0.001  0.002  0.018  0.020
   27  0.001  0.001  0.010  0.012
   28  0.000  0.002  0.009  0.011
   29  0.014  0.003  0.006  0.023
   30  0.001  0.001  0.004  0.006
   31  0.015  0.004  0.006  0.024
   32  0.010  0.003  0.006  0.019
   33  0.000  0.001  0.004  0.006
   34  0.008  0.003  0.006  0.017
   35  0.000  0.000  0.008  0.008
   36  0.000  0.007  0.059  0.066
   37  0.000  0.002  0.000  0.002
tot    0.212  0.095  0.413  0.720
 
band    16 # energy   -5.12937093 # occ.  2.00000000
 
ion      s      p      d    tot
    1  0.032  0.003  0.000  0.036
    2  0.000  0.003  0.010  0.013
    3  0.000  0.003  0.010  0.013
    4  0.000  0.003  0.010  0.013
    5  0.000  0.000  0.000  0.001
    6  0.000  0.003  0.010  0.013
    7  0.000  0.003  0.010  0.013
    8  0.000  0.003  0.010  0.013
    9  0.032  0.004  0.001  0.036
   10  0.009  0.003  0.010  0.023
   11  0.001  0.000  0.015  0.016
   12  0.009  0.003  0.010  0.023
   13  0.001  0.000  0.015  0.016
   14  0.001  0.000  0.015  0.016
   15  0.008  0.004  0.016  0.028
   16  0.009  0.003  0.010  0.023
   17  0.008  0.004  0.016  0.028
   18  0.008  0.004  0.016  0.028
   19  0.004  0.003  0.020  0.028
   20  0.000  0.000  0.013  0.013
   21  0.000  0.000  0.013  0.013
   22  0.011  0.004  0.010  0.024
   23  0.000  0.000  0.013  0.013
   24  0.011  0.004  0.010  0.024
   25  0.004  0.003  0.020  0.028
   26  0.004  0.003  0.020  0.028
   27  0.011  0.004  0.010  0.024
   28  0.035  0.003  0.000  0.039
   29  0.000  0.003  0.010  0.014
   30  0.000  0.003  0.010  0.014
   31  0.000  0.003  0.010  0.014
   32  0.000  0.003  0.010  0.014
   33  0.000  0.003  0.010  0.014
   34  0.000  0.003  0.010  0.014
   35  0.031  0.004  0.001  0.036
   36  0.000  0.000  0.000  0.000
   37  0.000  0.000  0.000  0.000
tot    0.230  0.095  0.379  0.704
 
band    17 # energy   -5.02748454 # occ.  2.00000000
 
ion      s      p      d    tot
    1  0.009  0.002  0.002  0.013
    2  0.001  0.003  0.010  0.013
    3  0.001  0.003  0.010  0.013
    4  0.001  0.003  0.010  0.013
    5  0.043  0.003  0.000  0.046
    6  0.001  0.003  0.010  0.013
    7  0.001  0.003  0.010  0.013
    8  0.001  0.003  0.010  0.013
    9  0.002  0.001  0.003  0.005
   10  0.003  0.001  0.021  0.026
   11  0.003  0.003  0.017  0.023
   12  0.003  0.001  0.021  0.026
   13  0.003  0.003  0.017  0.023
   14  0.003  0.003  0.017  0.023
   15  0.006  0.001  0.014  0.021
   16  0.003  0.001  0.021  0.026
   17  0.006  0.001  0.014  0.021
   18  0.006  0.001  0.014  0.021
   19  0.013  0.001  0.019  0.033
   20  0.004  0.004  0.014  0.022
   21  0.004  0.004  0.014  0.022
   22  0.003  0.001  0.019  0.023
   23  0.004  0.004  0.014  0.022
   24  0.003  0.001  0.019  0.023
   25  0.013  0.001  0.019  0.033
   26  0.013  0.001  0.019  0.033
   27  0.003  0.001  0.019  0.023
   28  0.002  0.002  0.007  0.011
   29  0.002  0.002  0.009  0.013
   30  0.002  0.002  0.009  0.013
   31  0.002  0.002  0.009  0.013
   32  0.002  0.002  0.009  0.013
   33  0.002  0.002  0.009  0.013
   34  0.002  0.002  0.009  0.013
   35  0.001  0.001  0.004  0.006
   36  0.051  0.004  0.002  0.057
   37  0.002  0.011  0.000  0.014
tot    0.222  0.083  0.445  0.750
 
band    18 # energy   -4.68157012 # occ.  2.00000000
 
ion      s      p      d    tot
    1  0.003  0.000  0.000  0.004
    2  0.000  0.000  0.002  0.002
    3  0.000  0.000  0.002  0.002
    4  0.000  0.000  0.002  0.002
    5  0.002  0.000  0.001  0.003
    6  0.000  0.000  0.002  0.002
    7  0.000  0.000  0.002  0.002
    8  0.000  0.000  0.002  0.002
    9  0.000  0.000  0.001  0.001
   10  0.000  0.000  0.006  0.007
   11  0.000  0.001  0.008  0.010
   12  0.000  0.000  0.006  0.007
   13  0.000  0.001  0.008  0.010
   14  0.000  0.001  0.008  0.010
   15  0.000  0.000  0.004  0.004
   16  0.000  0.000  0.006  0.007
   17  0.000  0.000  0.004  0.004
   18  0.000  0.000  0.004  0.004
   19  0.000  0.000  0.009  0.010
   20  0.004  0.001  0.018  0.022
   21  0.004  0.001  0.018  0.022
   22  0.001  0.001  0.023  0.025
   23  0.004  0.001  0.018  0.022
   24  0.001  0.001  0.023  0.025
   25  0.000  0.000  0.009  0.010
   26  0.000  0.000  0.009  0.010
   27  0.001  0.001  0.023  0.025
   28  0.005  0.000  0.003  0.008
   29  0.001  0.003  0.015  0.018
   30  0.001  0.003  0.015  0.018
   31  0.001  0.003  0.015  0.018
   32  0.001  0.003  0.015  0.018
   33  0.001  0.003  0.015  0.018
   34  0.001  0.003  0.015  0.018
   35  0.025  0.000  0.006  0.031
   36  0.000  0.005  0.321  0.326
   37  0.014  0.137  0.000  0.151
tot    0.071  0.169  0.636  0.876
 
band    19 # energy   -4.60014057 # occ.  2.00000000
 
ion      s      p      d    tot
    1  0.000  0.001  0.023  0.023
    2  0.014  0.002  0.006  0.022
    3  0.006  0.001  0.006  0.013
    4  0.014  0.002  0.006  0.022
    5  0.000  0.001  0.011  0.012
    6  0.002  0.001  0.006  0.009
    7  0.005  0.001  0.006  0.013
    8  0.002  0.001  0.006  0.009
    9  0.000  0.003  0.004  0.007
   10  0.000  0.000  0.053  0.053
   11  0.000  0.003  0.014  0.017
   12  0.000  0.000  0.017  0.017
   13  0.000  0.003  0.014  0.017
   14  0.000  0.000  0.003  0.003
   15  0.000  0.005  0.014  0.019
   16  0.000  0.000  0.016  0.016
   17  0.000  0.005  0.014  0.019
   18  0.000  0.000  0.028  0.028
   19  0.006  0.002  0.010  0.018
   20  0.000  0.000  0.048  0.048
   21  0.000  0.000  0.019  0.020
   22  0.004  0.001  0.015  0.021
   23  0.000  0.000  0.019  0.019
   24  0.000  0.001  0.009  0.009
   25  0.000  0.000  0.023  0.023
   26  0.006  0.002  0.011  0.018
   27  0.004  0.001  0.015  0.021
   28  0.000  0.001  0.003  0.004
   29  0.005  0.000  0.020  0.026
   30  0.000  0.001  0.015  0.016
   31  0.006  0.000  0.020  0.026
   32  0.008  0.000  0.016  0.025
   33  0.000  0.001  0.015  0.016
   34  0.008  0.000  0.016  0.025
   35  0.000  0.000  0.006  0.006
   36  0.000  0.000  0.160  0.160
   37  0.000  0.002  0.000  0.002
tot    0.093  0.042  0.687  0.821
 
band    20 # energy   -4.60008700 # occ.  2.00000000
 
ion      s      p      d    tot
    1  0.000  0.001  0.023  0.023
    2  0.000  0.001  0.006  0.007
    3  0.009  0.001  0.006  0.017
    4  0.000  0.001  0.006  0.007
    5  0.000  0.001  0.011  0.012
    6  0.013  0.001  0.006  0.020
    7  0.009  0.001  0.006  0.017
    8  0.013  0.001  0.006  0.020
    9  0.000  0.003  0.004  0.007
   10  0.000  0.000  0.004  0.005
   11  0.000  0.001  0.006  0.007
   12  0.000  0.000  0.040  0.040
   13  0.000  0.001  0.007  0.008
   14  0.000  0.004  0.018  0.022
   15  0.000  0.002  0.023  0.025
   16  0.000  0.000  0.041  0.041
   17  0.000  0.002  0.023  0.025
   18  0.000  0.006  0.009  0.016
   19  0.002  0.001  0.019  0.021
   20  0.000  0.000  0.010  0.010
   21  0.000  0.000  0.038  0.038
   22  0.002  0.001  0.011  0.013
   23  0.000  0.000  0.039  0.039
   24  0.006  0.002  0.017  0.025
   25  0.008  0.003  0.006  0.017
   26  0.002  0.001  0.018  0.021
   27  0.001  0.001  0.011  0.013
   28  0.000  0.001  0.003  0.004
   29  0.004  0.001  0.014  0.019
   30  0.009  0.000  0.019  0.029
   31  0.004  0.001  0.014  0.018
   32  0.001  0.001  0.018  0.019
   33  0.009  0.000  0.019  0.029
   34  0.001  0.001  0.018  0.019
   35  0.000  0.000  0.006  0.006
   36  0.000  0.000  0.160  0.160
   37  0.000  0.002  0.000  0.002
tot    0.093  0.042  0.687  0.821
 
band    21 # energy   -4.42211140 # occ.  2.00000000
 
ion      s      p      d    tot
    1  0.003  0.000  0.001  0.004
    2  0.000  0.002  0.019  0.021
    3  0.000  0.002  0.019  0.021
    4  0.000  0.002  0.019  0.020
    5  0.016  0.001  0.000  0.017
    6  0.000  0.002  0.019  0.021
    7  0.000  0.002  0.019  0.021
    8  0.000  0.002  0.019  0.021
    9  0.031  0.001  0.002  0.034
   10  0.000  0.001  0.009  0.011
   11  0.000  0.001  0.022  0.023
   12  0.000  0.001  0.009  0.011
   13  0.000  0.001  0.022  0.022
   14  0.000  0.001  0.022  0.022
   15  0.001  0.004  0.042  0.046
   16  0.000  0.001  0.009  0.011
   17  0.001  0.004  0.042  0.046
   18  0.001  0.004  0.042  0.046
   19  0.000  0.001  0.029  0.031
   20  0.001  0.001  0.004  0.005
   21  0.001  0.001  0.004  0.005
   22  0.001  0.003  0.032  0.036
   23  0.001  0.001  0.004  0.005
   24  0.001  0.003  0.032  0.036
   25  0.000  0.001  0.029  0.031
   26  0.000  0.001  0.029  0.031
   27  0.001  0.003  0.032  0.036
   28  0.025  0.001  0.001  0.027
   29  0.000  0.001  0.018  0.019
   30  0.000  0.001  0.018  0.019
   31  0.000  0.001  0.018  0.019
   32  0.000  0.001  0.018  0.019
   33  0.000  0.001  0.018  0.019
   34  0.000  0.001  0.018  0.019
   35  0.016  0.000  0.002  0.018
   36  0.000  0.000  0.005  0.005