PROCAR new format
# of k-points:   10         # of bands:  252         # of ions:   38

 k-point     1 :    0.00000000 0.00000000 0.00000000     weight = 0.01562500

band     1 # energy  -18.96080652 # occ.  2.00000000
 
ion      s      p      d    tot
    1  0.000  0.000  0.000  0.000
    2  0.000  0.000  0.000  0.000
    3  0.000  0.000  0.000  0.000
    4  0.000  0.000  0.000  0.000
    5  0.000  0.000  0.000  0.000
    6  0.000  0.000  0.000  0.000
    7  0.000  0.000  0.000  0.000
    8  0.000  0.000  0.000  0.000
    9  0.000  0.000  0.000  0.000
   10  0.000  0.000  0.000  0.000
   11  0.000  0.000  0.000  0.000
   12  0.000  0.000  0.000  0.000
   13  0.000  0.000  0.000  0.000
   14  0.000  0.000  0.000  0.000
   15  0.000  0.000  0.000  0.000
   16  0.000  0.000  0.000  0.000
   17  0.000  0.000  0.000  0.000
   18  0.000  0.000  0.000  0.000
   19  0.000  0.000  0.000  0.000
   20  0.000  0.000  0.000  0.000
   21  0.000  0.000  0.000  0.000
   22  0.000  0.000  0.000  0.000
   23  0.000  0.000  0.000  0.000
   24  0.000  0.000  0.000  0.000
   25  0.000  0.000  0.000  0.000
   26  0.000  0.000  0.000  0.000
   27  0.000  0.000  0.000  0.000
   28  0.000  0.000  0.000  0.000
   29  0.000  0.000  0.000  0.000
   30  0.000  0.000  0.000  0.000
   31  0.000  0.000  0.000  0.000
   32  0.000  0.000  0.000  0.000
   33  0.000  0.000  0.000  0.000
   34  0.000  0.000  0.000  0.000
   35  0.000  0.000  0.000  0.000
   36  0.009  0.010  0.015  0.034
   37  0.736  0.016  0.000  0.752
   38  0.119  0.024  0.000  0.142
tot    0.864  0.049  0.015  0.928
 
band     2 # energy   -7.91319864 # occ.  2.00000000
 
ion      s      p      d    tot
    1  0.000  0.000  0.000  0.000
    2  0.000  0.000  0.000  0.000
    3  0.000  0.000  0.000  0.000
    4  0.000  0.000  0.000  0.000
    5  0.000  0.000  0.000  0.000
    6  0.000  0.000  0.000  0.000
    7  0.000  0.000  0.000  0.000
    8  0.000  0.000  0.000  0.000
    9  0.000  0.000  0.000  0.000
   10  0.000  0.000  0.000  0.000
   11  0.000  0.000  0.000  0.000
   12  0.000  0.000  0.000  0.000
   13  0.000  0.000  0.000  0.000
   14  0.000  0.000  0.000  0.000
   15  0.000  0.000  0.000  0.000
   16  0.000  0.000  0.000  0.000
   17  0.000  0.000  0.000  0.000
   18  0.000  0.000  0.000  0.000
   19  0.000  0.000  0.000  0.000
   20  0.002  0.001  0.003  0.006
   21  0.002  0.001  0.003  0.006
   22  0.000  0.000  0.000  0.000
   23  0.002  0.001  0.003  0.006
   24  0.000  0.000  0.000  0.000
   25  0.000  0.000  0.000  0.000
   26  0.000  0.000  0.000  0.000
   27  0.000  0.000  0.000  0.000
   28  0.000  0.000  0.000  0.000
   29  0.001  0.000  0.001  0.001
   30  0.001  0.000  0.001  0.001
   31  0.001  0.000  0.001  0.001
   32  0.001  0.000  0.001  0.001
   33  0.001  0.000  0.001  0.001
   34  0.001  0.000  0.001  0.001
   35  0.000  0.000  0.000  0.000
   36  0.081  0.024  0.121  0.226
   37  0.018  0.476  0.000  0.494
   38  0.162  0.017  0.000  0.179
tot    0.276  0.520  0.133  0.929
 
band     3 # energy   -6.77047008 # occ.  2.00000000
 
ion      s      p      d    tot
    1  0.006  0.001  0.000  0.007
    2  0.006  0.001  0.000  0.007
    3  0.006  0.001  0.000  0.007
    4  0.006  0.001  0.000  0.007
    5  0.006  0.001  0.000  0.007
    6  0.006  0.001  0.000  0.007
    7  0.006  0.001  0.000  0.007
    8  0.006  0.001  0.000  0.007
    9  0.006  0.001  0.000  0.007
   10  0.023  0.000  0.000  0.024
   11  0.024  0.000  0.000  0.024
   12  0.023  0.000  0.000  0.024
   13  0.024  0.000  0.000  0.024
   14  0.024  0.000  0.000  0.024
   15  0.024  0.000  0.000  0.024
   16  0.023  0.000  0.000  0.024
   17  0.024  0.000  0.000  0.024
   18  0.024  0.000  0.000  0.024
   19  0.021  0.000  0.000  0.022
   20  0.022  0.000  0.000  0.022
   21  0.022  0.000  0.000  0.022
   22  0.023  0.000  0.000  0.023
   23  0.022  0.000  0.000  0.022
   24  0.023  0.000  0.000  0.023
   25  0.021  0.000  0.000  0.022
   26  0.021  0.000  0.000  0.022
   27  0.023  0.000  0.000  0.023
   28  0.005  0.001  0.000  0.006
   29  0.005  0.001  0.000  0.006
   30  0.005  0.001  0.000  0.006
   31  0.005  0.001  0.000  0.006
   32  0.005  0.001  0.000  0.006
   33  0.005  0.001  0.000  0.006
   34  0.005  0.001  0.000  0.006
   35  0.006  0.001  0.000  0.006
   36  0.004  0.003  0.005  0.012
   37  0.001  0.010  0.000  0.011
   38  0.003  0.000  0.000  0.004
tot    0.516  0.027  0.011  0.554
 
band     4 # energy   -5.90799823 # occ.  2.00000000
 
ion      s      p      d    tot
    1  0.009  0.000  0.001  0.010
    2  0.009  0.000  0.001  0.010
    3  0.009  0.000  0.001  0.010
    4  0.009  0.000  0.001  0.010
    5  0.008  0.000  0.001  0.009
    6  0.009  0.000  0.001  0.010
    7  0.009  0.000  0.001  0.010
    8  0.009  0.000  0.001  0.010
    9  0.009  0.000  0.001  0.010
   10  0.011  0.001  0.013  0.025
   11  0.010  0.001  0.014  0.025
   12  0.011  0.001  0.013  0.025
   13  0.010  0.001  0.014  0.025
   14  0.010  0.001  0.014  0.025
   15  0.011  0.001  0.014  0.026
   16  0.011  0.001  0.013  0.025
   17  0.011  0.001  0.014  0.026
   18  0.011  0.001  0.014  0.026
   19  0.011  0.001  0.014  0.026
   20  0.011  0.001  0.011  0.023
   21  0.011  0.001  0.011  0.023
   22  0.013  0.001  0.014  0.028
   23  0.011  0.001  0.011  0.023
   24  0.013  0.001  0.014  0.028
   25  0.011  0.001  0.014  0.026
   26  0.011  0.001  0.014  0.026
   27  0.013  0.001  0.014  0.028
   28  0.009  0.000  0.000  0.009
   29  0.009  0.000  0.001  0.010
   30  0.009  0.000  0.001  0.010
   31  0.009  0.000  0.001  0.010
   32  0.009  0.000  0.001  0.010
   33  0.009  0.000  0.001  0.010
   34  0.009  0.000  0.001  0.010
   35  0.009  0.000  0.000  0.009
   36  0.010  0.002  0.005  0.017
   37  0.001  0.004  0.000  0.005
   38  0.001  0.000  0.000  0.001
tot    0.360  0.033  0.252  0.645
 
band     5 # energy   -5.65314389 # occ.  2.00000000
 
ion      s      p      d    tot
    1  0.009  0.000  0.022  0.031
    2  0.011  0.000  0.017  0.028
    3  0.011  0.000  0.017  0.028
    4  0.011  0.000  0.017  0.028
    5  0.010  0.000  0.015  0.025
    6  0.011  0.000  0.017  0.028
    7  0.011  0.000  0.017  0.028
    8  0.011  0.000  0.017  0.028
    9  0.013  0.000  0.017  0.029
   10  0.001  0.000  0.022  0.022
   11  0.001  0.000  0.019  0.020
   12  0.001  0.000  0.022  0.022
   13  0.001  0.000  0.019  0.020
   14  0.001  0.000  0.019  0.020
   15  0.000  0.000  0.021  0.021
   16  0.001  0.000  0.022  0.022
   17  0.000  0.000  0.021  0.021
   18  0.000  0.000  0.021  0.021
   19  0.001  0.000  0.014  0.015
   20  0.000  0.000  0.021  0.021
   21  0.000  0.000  0.021  0.021
   22  0.000  0.000  0.016  0.016
   23  0.000  0.000  0.021  0.021
   24  0.000  0.000  0.016  0.016
   25  0.001  0.000  0.014  0.015
   26  0.001  0.000  0.014  0.015
   27  0.000  0.000  0.016  0.016
   28  0.005  0.000  0.012  0.017
   29  0.007  0.000  0.012  0.020
   30  0.007  0.000  0.012  0.020
   31  0.007  0.000  0.012  0.020
   32  0.007  0.000  0.012  0.020
   33  0.007  0.000  0.012  0.020
   34  0.007  0.000  0.012  0.020
   35  0.006  0.000  0.010  0.016
   36  0.015  0.000  0.013  0.028
   37  0.000  0.001  0.000  0.002
   38  0.000  0.000  0.000  0.000
tot    0.176  0.006  0.601  0.784
 
band     6 # energy   -5.51447752 # occ.  2.00000000
 
ion      s      p      d    tot
    1  0.010  0.001  0.000  0.011
    2  0.003  0.000  0.011  0.014
    3  0.003  0.000  0.011  0.014
    4  0.003  0.000  0.011  0.014
    5  0.006  0.000  0.010  0.016
    6  0.003  0.000  0.011  0.014
    7  0.003  0.000  0.011  0.014
    8  0.003  0.000  0.011  0.014
    9  0.000  0.001  0.020  0.021
   10  0.000  0.000  0.058  0.058
   11  0.002  0.001  0.016  0.018
   12  0.000  0.000  0.058  0.058
   13  0.002  0.001  0.016  0.018
   14  0.002  0.001  0.016  0.018
   15  0.015  0.001  0.016  0.032
   16  0.000  0.000  0.058  0.058
   17  0.015  0.001  0.016  0.032
   18  0.015  0.001  0.016  0.032
   19  0.005  0.000  0.027  0.032
   20  0.006  0.000  0.017  0.023
   21  0.006  0.000  0.017  0.023
   22  0.004  0.001  0.011  0.016
   23  0.006  0.000  0.017  0.023
   24  0.004  0.001  0.011  0.016
   25  0.005  0.000  0.027  0.032
   26  0.005  0.000  0.027  0.032
   27  0.004  0.001  0.011  0.016
   28  0.001  0.001  0.011  0.013
   29  0.001  0.000  0.012  0.013
   30  0.001  0.000  0.012  0.013
   31  0.001  0.000  0.012  0.013
   32  0.001  0.000  0.012  0.013
   33  0.001  0.000  0.012  0.013
   34  0.001  0.000  0.012  0.013
   35  0.000  0.000  0.001  0.001
   36  0.019  0.003  0.007  0.029
   37  0.001  0.003  0.000  0.004
   38  0.001  0.000  0.000  0.001
tot    0.160  0.021  0.618  0.798
 
band     7 # energy   -5.49898721 # occ.  2.00000000
 
ion      s      p      d    tot
    1  0.000  0.000  0.003  0.003
    2  0.000  0.000  0.003  0.003
    3  0.002  0.000  0.006  0.008
    4  0.000  0.000  0.003  0.003
    5  0.000  0.000  0.009  0.010
    6  0.001  0.000  0.004  0.005
    7  0.002  0.000  0.006  0.008
    8  0.001  0.000  0.004  0.005
    9  0.000  0.000  0.003  0.004
   10  0.004  0.001  0.016  0.020
   11  0.007  0.001  0.059  0.066
   12  0.001  0.000  0.054  0.055
   13  0.007  0.001  0.059  0.066
   14  0.028  0.001  0.009  0.037
   15  0.003  0.001  0.017  0.021
   16  0.001  0.000  0.054  0.055
   17  0.003  0.001  0.017  0.021
   18  0.011  0.000  0.037  0.048
   19  0.000  0.000  0.036  0.037
   20  0.014  0.000  0.030  0.044
   21  0.003  0.001  0.018  0.022
   22  0.006  0.000  0.050  0.056
   23  0.003  0.001  0.018  0.022
   24  0.022  0.001  0.007  0.030
   25  0.001  0.000  0.018  0.019
   26  0.000  0.000  0.036  0.037
   27  0.006  0.000  0.050  0.056
   28  0.000  0.000  0.001  0.001
   29  0.002  0.000  0.004  0.007
   30  0.000  0.000  0.002  0.003
   31  0.002  0.000  0.004  0.007
   32  0.001  0.000  0.003  0.004
   33  0.000  0.000  0.002  0.003
   34  0.001  0.000  0.003  0.004
   35  0.000  0.000  0.009  0.009
   36  0.000  0.000  0.002  0.003
   37  0.000  0.000  0.000  0.000
   38  0.000  0.000  0.000  0.000
tot    0.130  0.017  0.654  0.801
 
band     8 # energy   -5.49897825 # occ.  2.00000000
 
ion      s      p      d    tot
    1  0.000  0.000  0.003  0.003
    2  0.002  0.001  0.005  0.008
    3  0.000  0.000  0.003  0.003
    4  0.002  0.001  0.005  0.008
    5  0.000  0.000  0.009  0.010
    6  0.001  0.000  0.004  0.005
    7  0.000  0.000  0.003  0.003
    8  0.001  0.000  0.004  0.005
    9  0.000  0.000  0.003  0.004
   10  0.000  0.000  0.067  0.067
   11  0.021  0.001  0.025  0.047
   12  0.003  0.000  0.029  0.032
   13  0.021  0.001  0.025  0.047
   14  0.000  0.000  0.075  0.076
   15  0.008  0.001  0.030  0.039
   16  0.003  0.000  0.029  0.032
   17  0.008  0.001  0.030  0.039
   18  0.000  0.002  0.010  0.012
   19  0.001  0.000  0.024  0.025
   20  0.000  0.001  0.014  0.015
   21  0.010  0.001  0.026  0.036
   22  0.017  0.001  0.021  0.039
   23  0.010  0.001  0.026  0.036
   24  0.000  0.000  0.065  0.065
   25  0.000  0.001  0.043  0.043
   26  0.001  0.000  0.024  0.025
   27  0.017  0.001  0.021  0.039
   28  0.000  0.000  0.001  0.001
   29  0.000  0.000  0.002  0.002
   30  0.001  0.000  0.004  0.006
   31  0.000  0.000  0.002  0.002
   32  0.001  0.000  0.004  0.005
   33  0.001  0.000  0.004  0.006
   34  0.001  0.000  0.004  0.005
   35  0.000  0.000  0.009  0.009
   36  0.000  0.000  0.002  0.003
   37  0.000  0.000  0.000  0.000
   38  0.000  0.000  0.000  0.000
tot    0.130  0.017  0.654  0.801
 
band     9 # energy   -5.49255994 # occ.  2.00000000
 
ion      s      p      d    tot
    1  0.000  0.000  0.008  0.008
    2  0.002  0.001  0.006  0.009
    3  0.001  0.000  0.003  0.004
    4  0.001  0.001  0.006  0.009
    5  0.000  0.000  0.000  0.000
    6  0.000  0.000  0.004  0.005
    7  0.001  0.000  0.003  0.004
    8  0.000  0.000  0.004  0.004
    9  0.000  0.000  0.009  0.009
   10  0.025  0.000  0.030  0.056
   11  0.000  0.001  0.036  0.037
   12  0.006  0.001  0.029  0.036
   13  0.000  0.001  0.036  0.037
   14  0.000  0.000  0.032  0.032
   15  0.005  0.000  0.088  0.093
   16  0.006  0.001  0.029  0.036
   17  0.005  0.000  0.085  0.091
   18  0.021  0.001  0.004  0.025
   19  0.004  0.001  0.025  0.030
   20  0.010  0.001  0.009  0.019
   21  0.003  0.000  0.035  0.038
   22  0.000  0.001  0.027  0.028
   23  0.002  0.000  0.037  0.039
   24  0.001  0.000  0.028  0.030
   25  0.016  0.001  0.018  0.035
   26  0.004  0.001  0.024  0.030
   27  0.000  0.001  0.027  0.028
   28  0.000  0.000  0.007  0.007
   29  0.000  0.000  0.002  0.003
   30  0.001  0.000  0.003  0.004
   31  0.000  0.000  0.002  0.003
   32  0.001  0.000  0.003  0.004
   33  0.001  0.000  0.003  0.004
   34  0.001  0.000  0.003  0.004
   35  0.000  0.000  0.002  0.002
   36  0.000  0.000  0.003  0.003
   37  0.000  0.000  0.000  0.000
   38  0.000  0.000  0.000  0.000
tot    0.118  0.016  0.671  0.805
 
band    10 # energy   -5.49253910 # occ.  2.00000000
 
ion      s      p      d    tot
    1  0.000  0.000  0.008  0.008
    2  0.000  0.000  0.003  0.003
    3  0.001  0.000  0.006  0.007
    4  0.000  0.000  0.003  0.003
    5  0.000  0.000  0.000  0.000
    6  0.001  0.001  0.005  0.007
    7  0.001  0.000  0.006  0.008
    8  0.001  0.001  0.005  0.007
    9  0.000  0.000  0.009  0.009
   10  0.000  0.001  0.028  0.030
   11  0.000  0.000  0.034  0.034
   12  0.018  0.001  0.030  0.049
   13  0.000  0.001  0.034  0.034
   14  0.000  0.001  0.037  0.038
   15  0.016  0.001  0.030  0.046
   16  0.019  0.001  0.030  0.050
   17  0.015  0.001  0.033  0.049
   18  0.000  0.000  0.114  0.114
   19  0.012  0.001  0.020  0.033
   20  0.000  0.000  0.045  0.045
   21  0.007  0.001  0.018  0.026
   22  0.001  0.000  0.028  0.029
   23  0.007  0.001  0.017  0.025
   24  0.000  0.001  0.026  0.027
   25  0.000  0.001  0.027  0.028
   26  0.012  0.001  0.020  0.033
   27  0.001  0.000  0.028  0.029
   28  0.000  0.000  0.007  0.007
   29  0.001  0.000  0.003  0.004
   30  0.000  0.000  0.002  0.003
   31  0.001  0.000  0.003  0.004
   32  0.000  0.000  0.003  0.003
   33  0.000  0.000  0.002  0.003
   34  0.000  0.000  0.003  0.003
   35  0.000  0.000  0.002  0.002
   36  0.000  0.000  0.003  0.003
   37  0.000  0.000  0.000  0.000
   38  0.000  0.000  0.000  0.000
tot    0.118  0.016  0.671  0.805
 
band    11 # energy   -5.49080027 # occ.  2.00000000
 
ion      s      p      d    tot
    1  0.003  0.001  0.002  0.007
    2  0.000  0.000  0.005  0.005
    3  0.000  0.000  0.005  0.005
    4  0.000  0.000  0.005  0.005
    5  0.003  0.001  0.009  0.014
    6  0.000  0.000  0.005  0.005
    7  0.000  0.000  0.005  0.005
    8  0.000  0.000  0.005  0.005
    9  0.000  0.000  0.001  0.001
   10  0.012  0.001  0.008  0.021
   11  0.009  0.000  0.067  0.077
   12  0.012  0.001  0.008  0.021
   13  0.009  0.000  0.067  0.077
   14  0.009  0.000  0.068  0.078
   15  0.001  0.001  0.040  0.041
   16  0.012  0.001  0.008  0.021
   17  0.001  0.001  0.040  0.041
   18  0.000  0.001  0.039  0.040
   19  0.009  0.001  0.012  0.022
   20  0.001  0.001  0.022  0.024
   21  0.001  0.001  0.022  0.024
   22  0.005  0.000  0.049  0.053
   23  0.001  0.001  0.022  0.024
   24  0.005  0.000  0.048  0.053
   25  0.009  0.001  0.012  0.022
   26  0.009  0.001  0.012  0.022
   27  0.005  0.000  0.049  0.053
   28  0.003  0.001  0.001  0.005
   29  0.000  0.000  0.003  0.004
   30  0.000  0.000  0.003  0.004
   31  0.000  0.000  0.003  0.004
   32  0.000  0.000  0.003  0.004
   33  0.000  0.000  0.003  0.004
   34  0.000  0.000  0.003  0.004
   35  0.003  0.001  0.007  0.012
   36  0.001  0.000  0.000  0.002
   37  0.000  0.001  0.000  0.001
   38  0.000  0.000  0.000  0.000
tot    0.125  0.016  0.665  0.806
 
band    12 # energy   -5.48342324 # occ.  2.00000000
 
ion      s      p      d    tot
    1  0.004  0.000  0.020  0.024
    2  0.003  0.000  0.011  0.014
    3  0.003  0.000  0.011  0.015
    4  0.003  0.000  0.011  0.014
    5  0.001  0.000  0.012  0.014
    6  0.003  0.000  0.011  0.014
    7  0.003  0.000  0.011  0.015
    8  0.003  0.000  0.011  0.014
    9  0.005  0.000  0.001  0.006
   10  0.002  0.001  0.034  0.036
   11  0.008  0.001  0.013  0.022
   12  0.002  0.001  0.034  0.036
   13  0.008  0.001  0.013  0.022
   14  0.008  0.001  0.013  0.022
   15  0.002  0.000  0.038  0.041
   16  0.002  0.001  0.034  0.036
   17  0.002  0.000  0.038  0.041
   18  0.002  0.000  0.038  0.041
   19  0.003  0.000  0.023  0.026
   20  0.003  0.001  0.015  0.019
   21  0.003  0.001  0.015  0.019
   22  0.000  0.000  0.028  0.028
   23  0.003  0.001  0.015  0.019
   24  0.000  0.000  0.028  0.028
   25  0.003  0.000  0.023  0.026
   26  0.003  0.000  0.023  0.026
   27  0.000  0.000  0.028  0.028
   28  0.005  0.000  0.014  0.019
   29  0.005  0.000  0.013  0.018
   30  0.005  0.000  0.013  0.018
   31  0.005  0.000  0.013  0.018
   32  0.005  0.000  0.013  0.018
   33  0.005  0.000  0.013  0.018
   34  0.005  0.000  0.013  0.018
   35  0.003  0.000  0.005  0.008
   36  0.007  0.000  0.009  0.017
   37  0.000  0.000  0.000  0.000
   38  0.000  0.000  0.000  0.000
tot    0.128  0.011  0.662  0.801
 
band    13 # energy   -5.46486526 # occ.  2.00000000
 
ion      s      p      d    tot
    1  0.000  0.000  0.010  0.010
    2  0.001  0.000  0.010  0.012
    3  0.001  0.000  0.010  0.012
    4  0.001  0.000  0.010  0.012
    5  0.000  0.000  0.000  0.000
    6  0.001  0.000  0.010  0.012
    7  0.001  0.000  0.010  0.012
    8  0.001  0.000  0.010  0.012
    9  0.008  0.000  0.010  0.018
   10  0.003  0.000  0.013  0.017
   11  0.000  0.000  0.031  0.031
   12  0.004  0.000  0.013  0.017
   13  0.000  0.000  0.031  0.031
   14  0.000  0.000  0.031  0.031
   15  0.000  0.000  0.033  0.033
   16  0.004  0.000  0.013  0.017
   17  0.000  0.000  0.033  0.033
   18  0.000  0.000  0.033  0.033
   19  0.002  0.001  0.004  0.006
   20  0.002  0.000  0.031  0.033
   21  0.002  0.000  0.031  0.032
   22  0.003  0.000  0.067  0.071
   23  0.002  0.000  0.030  0.032
   24  0.003  0.000  0.067  0.071
   25  0.002  0.001  0.004  0.006
   26  0.002  0.001  0.004  0.006
   27  0.003  0.000  0.067  0.071
   28  0.010  0.000  0.002  0.013
   29  0.004  0.000  0.014  0.018
   30  0.004  0.000  0.014  0.018
   31  0.004  0.000  0.014  0.018
   32  0.004  0.000  0.014  0.018
   33  0.004  0.000  0.014  0.018
   34  0.004  0.000  0.014  0.018
   35  0.004  0.000  0.035  0.039
   36  0.000  0.000  0.001  0.001
   37  0.000  0.000  0.000  0.000
   38  0.000  0.000  0.000  0.000
tot    0.083  0.007  0.738  0.828
 
band    14 # energy   -5.45256988 # occ.  2.00000000
 
ion      s      p      d    tot
    1  0.000  0.000  0.017  0.017
    2  0.002  0.000  0.006  0.009
    3  0.003  0.000  0.007  0.010
    4  0.002  0.000  0.006  0.009
    5  0.000  0.000  0.003  0.003
    6  0.000  0.000  0.009  0.009
    7  0.003  0.000  0.007  0.010
    8  0.000  0.000  0.009  0.009
    9  0.000  0.000  0.016  0.016
   10  0.000  0.000  0.020  0.020
   11  0.004  0.000  0.019  0.023
   12  0.000  0.000  0.034  0.034
   13  0.004  0.000  0.018  0.022
   14  0.000  0.000  0.038  0.038
   15  0.002  0.000  0.026  0.029
   16  0.000  0.000  0.033  0.033
   17  0.002  0.000  0.025  0.028
   18  0.000  0.000  0.045  0.045
   19  0.012  0.000  0.032  0.044
   20  0.000  0.000  0.055  0.055
   21  0.004  0.000  0.029  0.033
   22  0.003  0.000  0.039  0.042
   23  0.003  0.000  0.031  0.034
   24  0.000  0.000  0.013  0.013
   25  0.000  0.000  0.097  0.097
   26  0.012  0.000  0.028  0.041
   27  0.003  0.000  0.037  0.040
   28  0.000  0.001  0.011  0.011
   29  0.001  0.000  0.008  0.009
   30  0.001  0.000  0.008  0.009
   31  0.001  0.000  0.008  0.009
   32  0.002  0.001  0.004  0.007
   33  0.001  0.000  0.008  0.009
   34  0.002  0.001  0.004  0.007
   35  0.000  0.000  0.010  0.010
   36  0.000  0.000  0.002  0.002
   37  0.000  0.000  0.000  0.000
   38  0.000  0.000  0.000  0.000
tot    0.067  0.008  0.764  0.839
 
band    15 # energy   -5.45255202 # occ.  2.00000000
 
ion      s      p      d    tot
    1  0.000  0.000  0.017  0.017
    2  0.001  0.000  0.009  0.010
    3  0.001  0.000  0.008  0.009
    4  0.001  0.000  0.009  0.010
    5  0.000  0.000  0.003  0.003
    6  0.004  0.000  0.006  0.010
    7  0.001  0.000  0.008  0.009
    8  0.004  0.000  0.006  0.010
    9  0.000  0.000  0.016  0.016
   10  0.000  0.000  0.038  0.038
   11  0.001  0.000  0.031  0.033
   12  0.000  0.000  0.024  0.024
   13  0.001  0.000  0.032  0.033
   14  0.005  0.000  0.012  0.018
   15  0.001  0.000  0.038  0.039
   16  0.000  0.000  0.025  0.025
   17  0.001  0.000  0.039  0.040
   18  0.003  0.000  0.020  0.023
   19  0.004  0.000  0.073  0.078
   20  0.005  0.000  0.022  0.027
   21  0.001  0.000  0.047  0.048
   22  0.001  0.000  0.021  0.022
   23  0.001  0.000  0.046  0.047
   24  0.004  0.000  0.046  0.050
   25  0.016  0.000  0.008  0.024
   26  0.004  0.000  0.077  0.081
   27  0.001  0.000  0.022  0.024
   28  0.000  0.001  0.011  0.011
   29  0.002  0.000  0.005  0.007
   30  0.002  0.001  0.005  0.008
   31  0.002  0.000  0.005  0.007
   32  0.000  0.000  0.009  0.010
   33  0.002  0.001  0.005  0.008
   34  0.000  0.000  0.009  0.010
   35  0.000  0.000  0.010  0.010
   36  0.000  0.000  0.002  0.002
   37  0.000  0.000  0.000  0.000
   38  0.000  0.000  0.000  0.000
tot    0.067  0.008  0.764  0.839
 
band    16 # energy   -5.44835348 # occ.  2.00000000
 
ion      s      p      d    tot
    1  0.000  0.000  0.009  0.010
    2  0.002  0.000  0.006  0.009
    3  0.002  0.000  0.008  0.011
    4  0.003  0.001  0.006  0.009
    5  0.000  0.000  0.019  0.019
    6  0.000  0.000  0.010  0.010
    7  0.003  0.000  0.008  0.010
    8  0.000  0.000  0.010  0.010
    9  0.000  0.000  0.007  0.007
   10  0.007  0.000  0.007  0.014
   11  0.001  0.000  0.038  0.039
   12  0.001  0.000  0.065  0.066
   13  0.001  0.000  0.039  0.039
   14  0.003  0.000  0.038  0.041
   15  0.000  0.000  0.026  0.026
   16  0.002  0.000  0.054  0.056
   17  0.000  0.000  0.023  0.024
   18  0.001  0.000  0.035  0.036
   19  0.000  0.000  0.020  0.020
   20  0.008  0.000  0.025  0.033
   21  0.001  0.000  0.052  0.054
   22  0.001  0.000  0.067  0.068
   23  0.003  0.000  0.047  0.050
   24  0.007  0.000  0.008  0.015
   25  0.000  0.000  0.038  0.038
   26  0.000  0.000  0.016  0.016
   27  0.002  0.000  0.056  0.058
   28  0.000  0.000  0.006  0.006
   29  0.001  0.000  0.007  0.008
   30  0.001  0.000  0.005  0.005
   31  0.000  0.000  0.007  0.008
   32  0.002  0.000  0.004  0.006
   33  0.000  0.000  0.005  0.006
   34  0.002  0.000  0.004  0.007
   35  0.000  0.000  0.004  0.005
   36  0.000  0.000  0.005  0.006
   37  0.000  0.000  0.000  0.000
   38  0.000  0.000  0.000  0.000
tot    0.055  0.008  0.782  0.844
 
band    17 # energy   -5.44834933 # occ.  2.00000000
 
ion      s      p      d    tot
    1  0.000  0.000  0.009  0.010
    2  0.001  0.000  0.010  0.011
    3  0.001  0.000  0.007  0.009
    4  0.001  0.000  0.010  0.011
    5  0.000  0.000  0.019  0.019
    6  0.003  0.000  0.006  0.009
    7  0.001  0.000  0.008  0.009
    8  0.003  0.000  0.006  0.010
    9  0.000  0.000  0.007  0.007
   10  0.000  0.000  0.076  0.076
   11  0.002  0.000  0.038  0.040
   12  0.006  0.000  0.019  0.025
   13  0.002  0.000  0.038  0.040
   14  0.000  0.000  0.039  0.039
   15  0.001  0.000  0.031  0.031
   16  0.005  0.000  0.030  0.035
   17  0.001  0.000  0.033  0.034
   18  0.000  0.000  0.020  0.021
   19  0.000  0.000  0.029  0.029
   20  0.000  0.000  0.057  0.057
   21  0.006  0.000  0.031  0.037
   22  0.006  0.000  0.020  0.026
   23  0.005  0.000  0.036  0.041
   24  0.000  0.000  0.080  0.080
   25  0.000  0.000  0.012  0.012
   26  0.000  0.000  0.034  0.034
   27  0.005  0.000  0.031  0.037
   28  0.000  0.000  0.006  0.006
   29  0.001  0.000  0.004  0.005
   30  0.001  0.001  0.006  0.008
   31  0.002  0.000  0.004  0.005
   32  0.000  0.000  0.007  0.007
   33  0.002  0.001  0.005  0.007
   34  0.000  0.000  0.006  0.007
   35  0.000  0.000  0.004  0.005
   36  0.000  0.000  0.005  0.006
   37  0.000  0.000  0.000  0.000
   38  0.000  0.000  0.000  0.000
tot    0.055  0.008  0.782  0.844
 
band    18 # energy   -5.43850591 # occ.  2.00000000
 
ion      s      p      d    tot
    1  0.002  0.000  0.002  0.004
    2  0.000  0.000  0.012  0.012
    3  0.000  0.000  0.012  0.012
    4  0.000  0.000  0.012  0.012
    5  0.006  0.000  0.000  0.007
    6  0.000  0.000  0.012  0.012
    7  0.000  0.000  0.012  0.012
    8  0.000  0.000  0.012  0.012
    9  0.000  0.000  0.009  0.009
   10  0.000  0.000  0.035  0.036
   11  0.001  0.000  0.020  0.021
   12  0.000  0.000  0.036  0.036
   13  0.001  0.000  0.020  0.021
   14  0.001  0.000  0.020  0.021
   15  0.000  0.000  0.025  0.026
   16  0.000  0.000  0.036  0.036
   17  0.000  0.000  0.025  0.026
   18  0.000  0.000  0.025  0.026
   19  0.000  0.000  0.066  0.066
   20  0.007  0.000  0.057  0.064
   21  0.007  0.000  0.057  0.064
   22  0.006  0.001  0.004  0.010
   23  0.007  0.000  0.057  0.064
   24  0.006  0.001  0.004  0.010
   25  0.000  0.000  0.066  0.066
   26  0.000  0.000  0.066  0.066
   27  0.006  0.001  0.004  0.010
   28  0.000  0.000  0.003  0.004
   29  0.000  0.000  0.009  0.009
   30  0.000  0.000  0.009  0.010
   31  0.000  0.000  0.009  0.009
   32  0.000  0.000  0.009  0.010
   33  0.000  0.000  0.009  0.010
   34  0.000  0.000  0.009  0.010
   35  0.007  0.001  0.000  0.008
   36  0.000  0.002  0.003  0.005
   37  0.000  0.002  0.000  0.002
   38  0.001  0.000  0.000  0.001
tot    0.066  0.011  0.762  0.840
 
band    19 # energy   -5.29630766 # occ.  2.00000000
 
ion      s      p      d    tot
    1  0.001  0.000  0.007  0.009
    2  0.000  0.000  0.011  0.012
    3  0.000  0.000  0.011  0.012
    4  0.000  0.000  0.011  0.012
    5  0.004  0.001  0.000  0.005
    6  0.000  0.000  0.011  0.012
    7  0.000  0.000  0.011  0.012
    8  0.000  0.000  0.011  0.012
    9  0.000  0.000  0.006  0.007
   10  0.001  0.001  0.046  0.047
   11  0.000  0.000  0.022  0.022
   12  0.001  0.001  0.045  0.047
   13  0.000  0.000  0.022  0.022
   14  0.000  0.000  0.021  0.022
   15  0.003  0.000  0.040  0.043
   16  0.001  0.001  0.045  0.047
   17  0.003  0.000  0.040  0.043
   18  0.003  0.000  0.040  0.043
   19  0.002  0.000  0.040  0.042
   20  0.000  0.000  0.011  0.011
   21  0.000  0.000  0.010  0.011
   22  0.001  0.001  0.057  0.058
   23  0.000  0.000  0.010  0.011
   24  0.001  0.001  0.056  0.058
   25  0.002  0.000  0.040  0.042
   26  0.002  0.000  0.040  0.042
   27  0.001  0.001  0.057  0.058
   28  0.002  0.000  0.012  0.014
   29  0.000  0.000  0.010  0.011
   30  0.000  0.000  0.010  0.011
   31  0.000  0.000  0.010  0.011
   32  0.000  0.000  0.010  0.011
   33  0.000  0.000  0.010  0.011
   34  0.000  0.000  0.010  0.011
   35  0.005  0.001  0.003  0.009
   36  0.003  0.001  0.000  0.005
   37  0.000  0.000  0.000  0.000
   38  0.000  0.000  0.000  0.000
tot    0.037  0.017  0.800  0.855
 
band    20 # energy   -5.29167759 # occ.  2.00000000
 
ion      s      p      d    tot
    1  0.000  0.000  0.009  0.009
    2  0.000  0.000  0.011  0.011
    3  0.001  0.000  0.006  0.007
    4  0.000  0.000  0.011  0.011
    5  0.000  0.000  0.003  0.003
    6  0.002  0.001  0.007  0.009
    7  0.001  0.000  0.006  0.007
    8  0.002  0.001  0.007  0.009
    9  0.000  0.001  0.019  0.020
   10  0.001  0.001  0.040  0.043
   11  0.000  0.000  0.039  0.039
   12  0.000  0.000  0.014  0.015
   13  0.000  0.000  0.038  0.039
   14  0.000  0.001  0.023  0.024
   15  0.001  0.000  0.075  0.076
   16  0.000  0.000  0.014  0.014
   17  0.001  0.000  0.075  0.076
   18  0.003  0.000  0.045  0.048
   19  0.000  0.000  0.020  0.021
   20  0.003  0.001  0.039  0.043
   21  0.001  0.000  0.023  0.024
   22  0.001  0.000  0.072  0.073
   23  0.001  0.000  0.023  0.024
   24  0.002  0.000  0.035  0.037
   25  0.000  0.001  0.022  0.023
   26  0.000  0.000  0.020  0.021
   27  0.000  0.000  0.073  0.073
   28  0.000  0.000  0.000  0.000
   29  0.000  0.000  0.008  0.008
   30  0.001  0.001  0.007  0.009
   31  0.000  0.000  0.008  0.008
   32  0.001  0.000  0.005  0.006
   33  0.001  0.001  0.007  0.009
   34  0.001  0.000  0.005  0.006
   35  0.000  0.001  0.014  0.014
   36  0.000  0.001  0.006  0.007
   37  0.000  0.001  0.000  0.001
   38  0.000  0.000  0.000  0.000
tot    0.023  0.015  0.827  0.866
 
band    21 # energy   -5.29162255 # occ.  2.00000000
 
ion      s      p      d    tot
    1  0.000  0.000  0.009  0.009
    2  0.002  0.001  0.005  0.007
    3  0.001  0.001  0.009  0.011
    4  0.002  0.001  0.005  0.007
    5  0.000  0.000  0.003  0.003
    6  0.000  0.000  0.009  0.009
    7  0.001  0.001  0.009  0.011
    8  0.000  0.000  0.009  0.009
    9  0.000  0.001  0.019  0.020
   10  0.000  0.000  0.005  0.005
   11  0.000  0.001  0.028  0.029
   12  0.001  0.001  0.031  0.033
   13  0.000  0.001  0.028  0.029
   14  0.000  0.000  0.043  0.044
   15  0.002  0.000  0.055  0.057
   16  0.001  0.001  0.032  0.034