 vasp.6.2.0 18Jan21 (build Jun 12 2021 23:27:24) complex                        
  
 executed on             LinuxIFC date 2022.05.27  05:57:38
 running on   28 total cores
 distrk:  each k-point on   28 cores,    1 groups
 distr:  one band on NCORE=   1 cores,   28 groups


--------------------------------------------------------------------------------------------------------


 INCAR:
   ISMEAR = -5
   SIGMA = 0.1
   ISPIN = 1
   EDIFF = 1.d-5
   EDIFFG = -0.01
   NSW = 0
   NELM = 150
   ENCUT = 500
   ISIF = 2
   IBRION = 2
   LREAL = Auto
   ALGO = Fast
   ICHARG = 11
   LORBIT = 10
   LCHARG = .F.
   LWAVE = .F.

 POTCAR:    PAW_PBE Cu 22Jun2005                  
 POTCAR:    PAW_PBE Ti 08Apr2002                  
 POTCAR:    PAW_PBE O 08Apr2002                   
 POTCAR:    PAW_PBE H 15Jun2001                   
 -----------------------------------------------------------------------------
|                                                                             |
|           W    W    AA    RRRRR   N    N  II  N    N   GGGG   !!!           |
|           W    W   A  A   R    R  NN   N  II  NN   N  G    G  !!!           |
|           W    W  A    A  R    R  N N  N  II  N N  N  G       !!!           |
|           W WW W  AAAAAA  RRRRR   N  N N  II  N  N N  G  GGG   !            |
|           WW  WW  A    A  R   R   N   NN  II  N   NN  G    G                |
|           W    W  A    A  R    R  N    N  II  N    N   GGGG   !!!           |
|                                                                             |
|     For optimal performance we recommend to set                             |
|       NCORE = 2 up to number-of-cores-per-socket                            |
|     NCORE specifies how many cores store one orbital (NPAR=cpu/NCORE).      |
|     This setting can greatly improve the performance of VASP for DFT.       |
|     The default, NCORE=1 might be grossly inefficient on modern             |
|     multi-core architectures or massively parallel machines. Do your        |
|     own testing! More info at https://www.vasp.at/wiki/index.php/NCORE      |
|     Unfortunately you need to use the default for GW and RPA                |
|     calculations (for HF NCORE is supported but not extensively tested      |
|     yet).                                                                   |
|                                                                             |
 -----------------------------------------------------------------------------

 POTCAR:    PAW_PBE Cu 22Jun2005                  
   VRHFIN =Cu: d10 p1                                                                               
   LEXCH  = PE                                                                                      
   EATOM  =  1390.9808 eV,  102.2342 Ry                                                             
                                                                                                    
   TITEL  = PAW_PBE Cu 22Jun2005                                                                    
   LULTRA =        F    use ultrasoft PP ?                                                          
   IUNSCR =        1    unscreen: 0-lin 1-nonlin 2-no                                               
   RPACOR =    2.000    partial core radius                                                         
   POMASS =   63.546; ZVAL   =   11.000    mass and valenz                                          
   RCORE  =    2.300    outmost cutoff radius                                                       
   RWIGS  =    2.200; RWIGS  =    1.164    wigner-seitz radius (au A)                               
   ENMAX  =  295.446; ENMIN  =  221.585 eV                                                          
   ICORE  =        3    local potential                                                             
   LCOR   =        T    correct aug charges                                                         
   LPAW   =        T    paw PP                                                                      
   EAUG   =  586.980                                                                                
   DEXC   =    0.000                                                                                
   RMAX   =    2.344    core radius for proj-oper                                                   
   RAUG   =    1.300    factor for augmentation sphere                                              
   RDEP   =    2.302    radius for radial grids                                                     
   RDEPT  =    1.771    core radius for aug-charge                                                  
                                                                                                    
   Atomic configuration                                                                             
    9 entries                                                                                       
     n  l   j            E        occ.                                                              
     1  0  0.50     -8850.2468   2.0000                                                             
     2  0  0.50     -1062.3498   2.0000                                                             
     2  1  1.50      -916.8226   6.0000                                                             
     3  0  0.50      -114.6929   2.0000                                                             
     3  1  1.50       -72.1325   6.0000                                                             
     3  2  2.50        -5.0394  10.0000                                                             
     4  0  0.50        -4.6097   1.0000                                                             
     4  1  0.50        -4.0817   0.0000                                                             
     4  3  2.50        -1.3606   0.0000                                                             
   Description                                                                                      
     l       E           TYP  RCUT    TYP  RCUT                                                     
     2     -5.0393973     23  2.200                                                                 
     2     10.8846608     23  2.200                                                                 
     0     -4.6097109     23  2.200                                                                 
     0      8.2520465     23  2.200                                                                 
     1     -2.7211652     23  2.200                                                                 
     1     21.7055443     23  2.200                                                                 
     3      2.7211652     23  2.300                                                                 
  local pseudopotential read in
  partial core-charges read in
  partial kinetic energy density read in
  atomic valenz-charges read in
  non local Contribution for L=           2  read in
    real space projection operators read in
  non local Contribution for L=           2  read in
    real space projection operators read in
  non local Contribution for L=           0  read in
    real space projection operators read in
  non local Contribution for L=           0  read in
    real space projection operators read in
  non local Contribution for L=           1  read in
    real space projection operators read in
  non local Contribution for L=           1  read in
    real space projection operators read in
    PAW grid and wavefunctions read in
 
   number of l-projection  operators is LMAX  =           6
   number of lm-projection operators is LMMAX =          18
 
 POTCAR:    PAW_PBE Ti 08Apr2002                  
   VRHFIN =Ti: d3 s1                                                                                
   LEXCH  = PE                                                                                      
   EATOM  =    94.7928 eV,    6.9671 Ry                                                             
                                                                                                    
   TITEL  = PAW_PBE Ti 08Apr2002                                                                    
   LULTRA =        F    use ultrasoft PP ?                                                          
   IUNSCR =        1    unscreen: 0-lin 1-nonlin 2-no                                               
   RPACOR =    2.200    partial core radius                                                         
   POMASS =   47.880; ZVAL   =    4.000    mass and valenz                                          
   RCORE  =    2.800    outmost cutoff radius                                                       
   RWIGS  =    2.500; RWIGS  =    1.323    wigner-seitz radius (au A)                               
   ENMAX  =  178.330; ENMIN  =  133.747 eV                                                          
   RCLOC  =    2.215    cutoff for local pot                                                        
   LCOR   =        T    correct aug charges                                                         
   LPAW   =        T    paw PP                                                                      
   EAUG   =  328.883                                                                                
   DEXC   =    0.000                                                                                
   RMAX   =    2.868    core radius for proj-oper                                                   
   RAUG   =    1.300    factor for augmentation sphere                                              
   RDEP   =    2.885    radius for radial grids                                                     
   RDEPT  =    2.320    core radius for aug-charge                                                  
                                                                                                    
   Atomic configuration                                                                             
    9 entries                                                                                       
     n  l   j            E        occ.                                                              
     1  0  0.50     -4865.3608   2.0000                                                             
     2  0  0.50      -533.1367   2.0000                                                             
     2  1  1.50      -440.5031   6.0000                                                             
     3  0  0.50       -59.3186   2.0000                                                             
     3  1  1.50       -35.7012   6.0000                                                             
     3  2  2.50        -1.9157   3.0000                                                             
     4  0  0.50        -3.7291   1.0000                                                             
     4  1  1.50        -4.0817   0.0000                                                             
     4  3  2.50        -1.3606   0.0000                                                             
   Description                                                                                      
     l       E           TYP  RCUT    TYP  RCUT                                                     
     2     -1.9156924     23  2.800                                                                 
     2     -0.4062961     23  2.800                                                                 
     0     -3.7290832     23  2.800                                                                 
     0     20.4087390     23  2.800                                                                 
     1     -5.4423304     23  2.800                                                                 
  local pseudopotential read in
  partial core-charges read in
  partial kinetic energy density read in
  atomic valenz-charges read in
  non local Contribution for L=           2  read in
    real space projection operators read in
  non local Contribution for L=           2  read in
    real space projection operators read in
  non local Contribution for L=           0  read in
    real space projection operators read in
  non local Contribution for L=           0  read in
    real space projection operators read in
  non local Contribution for L=           1  read in
    real space projection operators read in
    PAW grid and wavefunctions read in
 
   number of l-projection  operators is LMAX  =           5
   number of lm-projection operators is LMMAX =          15
 
 POTCAR:    PAW_PBE O 08Apr2002                   
   VRHFIN =O: s2p4                                                                                  
   LEXCH  = PE                                                                                      
   EATOM  =   432.3788 eV,   31.7789 Ry                                                             
                                                                                                    
   TITEL  = PAW_PBE O 08Apr2002                                                                     
   LULTRA =        F    use ultrasoft PP ?                                                          
   IUNSCR =        1    unscreen: 0-lin 1-nonlin 2-no                                               
   RPACOR =    1.200    partial core radius                                                         
   POMASS =   16.000; ZVAL   =    6.000    mass and valenz                                          
   RCORE  =    1.520    outmost cutoff radius                                                       
   RWIGS  =    1.550; RWIGS  =    0.820    wigner-seitz radius (au A)                               
   ENMAX  =  400.000; ENMIN  =  300.000 eV                                                          
   ICORE  =        2    local potential                                                             
   LCOR   =        T    correct aug charges                                                         
   LPAW   =        T    paw PP                                                                      
   EAUG   =  605.392                                                                                
   DEXC   =    0.000                                                                                
   RMAX   =    1.553    core radius for proj-oper                                                   
   RAUG   =    1.300    factor for augmentation sphere                                              
   RDEP   =    1.550    radius for radial grids                                                     
   RDEPT  =    1.329    core radius for aug-charge                                                  
                                                                                                    
   Atomic configuration                                                                             
    4 entries                                                                                       
     n  l   j            E        occ.                                                              
     1  0  0.50      -514.6923   2.0000                                                             
     2  0  0.50       -23.9615   2.0000                                                             
     2  1  0.50        -9.0305   4.0000                                                             
     3  2  1.50        -9.5241   0.0000                                                             
   Description                                                                                      
     l       E           TYP  RCUT    TYP  RCUT                                                     
     0    -23.9615318     23  1.200                                                                 
     0     -9.5240782     23  1.200                                                                 
     1     -9.0304911     23  1.520                                                                 
     1      8.1634956     23  1.520                                                                 
     2     -9.5240782      7  1.500                                                                 
  local pseudopotential read in
  partial core-charges read in
  partial kinetic energy density read in
  kinetic energy density of atom read in
  atomic valenz-charges read in
  non local Contribution for L=           0  read in
    real space projection operators read in
  non local Contribution for L=           0  read in
    real space projection operators read in
  non local Contribution for L=           1  read in
    real space projection operators read in
  non local Contribution for L=           1  read in
    real space projection operators read in
    PAW grid and wavefunctions read in
 
   number of l-projection  operators is LMAX  =           4
   number of lm-projection operators is LMMAX =           8
 
 POTCAR:    PAW_PBE H 15Jun2001                   
   VRHFIN =H: ultrasoft test                                                                        
   LEXCH  = PE                                                                                      
   EATOM  =    12.4884 eV,    0.9179 Ry                                                             
                                                                                                    
   TITEL  = PAW_PBE H 15Jun2001                                                                     
   LULTRA =        F    use ultrasoft PP ?                                                          
   IUNSCR =        0    unscreen: 0-lin 1-nonlin 2-no                                               
   RPACOR =    0.000    partial core radius                                                         
   POMASS =    1.000; ZVAL   =    1.000    mass and valenz                                          
   RCORE  =    1.100    outmost cutoff radius                                                       
   RWIGS  =    0.700; RWIGS  =    0.370    wigner-seitz radius (au A)                               
   ENMAX  =  250.000; ENMIN  =  200.000 eV                                                          
   RCLOC  =    0.701    cutoff for local pot                                                        
   LCOR   =        T    correct aug charges                                                         
   LPAW   =        T    paw PP                                                                      
   EAUG   =  400.000                                                                                
   RMAX   =    1.123    core radius for proj-oper                                                   
   RAUG   =    1.200    factor for augmentation sphere                                              
   RDEP   =    1.112    radius for radial grids                                                     
   RDEPT  =    0.926    core radius for aug-charge                                                  
                                                                                                    
   Atomic configuration                                                                             
    2 entries                                                                                       
     n  l   j            E        occ.                                                              
     1  0  0.50        -6.4927   1.0000                                                             
     2  1  0.50        -3.4015   0.0000                                                             
   Description                                                                                      
     l       E           TYP  RCUT    TYP  RCUT                                                     
     0     -6.4927494     23  1.100                                                                 
     0      6.8029130     23  1.100                                                                 
     1     -4.0817478     23  1.100                                                                 
  local pseudopotential read in
  atomic valenz-charges read in
  non local Contribution for L=           0  read in
    real space projection operators read in
  non local Contribution for L=           0  read in
    real space projection operators read in
  non local Contribution for L=           1  read in
    real space projection operators read in
    PAW grid and wavefunctions read in
 
   number of l-projection  operators is LMAX  =           3
   number of lm-projection operators is LMMAX =           5
 
 Optimization of the real space projectors (new method)

 maximal supplied QI-value         = 16.25
 optimisation between [QCUT,QGAM] = [ 11.38, 22.75] = [ 36.24,144.96] Ry 
 Optimized for a Real-space Cutoff    1.52 Angstroem

   l    n(q)    QCUT    max X(q) W(low)/X(q) W(high)/X(q)  e(spline) 
   2      9    11.376     4.610    0.21E-03    0.10E-03    0.26E-06
   2      9    11.376     8.522    0.33E-03    0.16E-03    0.37E-06
   0     10    11.376    51.609    0.62E-04    0.20E-04    0.13E-06
   0     10    11.376    27.747    0.54E-04    0.20E-04    0.13E-06
   1     10    11.376    20.408    0.13E-04    0.99E-04    0.19E-06
   1     10    11.376    13.425    0.12E-04    0.87E-04    0.17E-06
 Optimization of the real space projectors (new method)

 maximal supplied QI-value         = 13.42
 optimisation between [QCUT,QGAM] = [ 11.40, 22.81] = [ 36.42,145.68] Ry 
 Optimized for a Real-space Cutoff    1.56 Angstroem

   l    n(q)    QCUT    max X(q) W(low)/X(q) W(high)/X(q)  e(spline) 
   2     10    11.404    49.363    0.27E-03    0.67E-03    0.76E-06
   2     10    11.404    47.669    0.26E-03    0.65E-03    0.73E-06
   0     11    11.404    26.374    0.17E-03    0.20E-03    0.34E-06
   0     11    11.404    11.549    0.14E-03    0.16E-03    0.29E-06
   1     10    11.404     9.492    0.33E-04    0.56E-04    0.16E-06
 Optimization of the real space projectors (new method)

 maximal supplied QI-value         = 24.76
 optimisation between [QCUT,QGAM] = [ 11.39, 22.77] = [ 36.31,145.25] Ry 
 Optimized for a Real-space Cutoff    1.00 Angstroem

   l    n(q)    QCUT    max X(q) W(low)/X(q) W(high)/X(q)  e(spline) 
   0      7    11.387    20.381    0.39E-03    0.13E-02    0.15E-06
   0      7    11.387    15.268    0.42E-03    0.14E-02    0.17E-06
   1      6    11.387     5.964    0.41E-03    0.11E-02    0.17E-06
   1      6    11.387     5.382    0.39E-03    0.87E-03    0.15E-06
 Optimization of the real space projectors (new method)

 maximal supplied QI-value         = 34.20
 optimisation between [QCUT,QGAM] = [ 11.29, 22.57] = [ 35.68,142.71] Ry 
 Optimized for a Real-space Cutoff    1.16 Angstroem

   l    n(q)    QCUT    max X(q) W(low)/X(q) W(high)/X(q)  e(spline) 
   0      8    11.287    19.460    0.40E-03    0.73E-03    0.16E-06
   0      8    11.287    12.209    0.38E-03    0.70E-03    0.15E-06
   1      7    11.287     4.655    0.22E-03    0.25E-04    0.22E-06
  PAW_PBE Cu 22Jun2005                  :
 energy of atom  1       EATOM=-1390.9808
 kinetic energy error for atom=    0.0043 (will be added to EATOM!!)
  PAW_PBE Ti 08Apr2002                  :
 energy of atom  2       EATOM=  -94.7928
 kinetic energy error for atom=    0.0002 (will be added to EATOM!!)
  PAW_PBE O 08Apr2002                   :
 energy of atom  3       EATOM= -432.3788
 kinetic energy error for atom=    0.0224 (will be added to EATOM!!)
  PAW_PBE H 15Jun2001                   :
 energy of atom  4       EATOM=  -12.4884
 kinetic energy error for atom=    0.0020 (will be added to EATOM!!)
 
 
 POSCAR: Cu-Ti-OH
  positions in direct lattice
  velocities in cartesian coordinates
 exchange correlation table for  LEXCH =        8
   RHO(1)=    0.500       N(1)  =     2000
   RHO(2)=  100.500       N(2)  =     4000

 VTST: version 3.2, (02/03/18)

 CHAIN: initializing optimizer
 
 OPT: Using VASP Conjugate-Gradient optimizer
 CHAIN: Read ICHAIN            0
 
 POSCAR: Cu-Ti-OH
  positions in direct lattice
  velocities in cartesian coordinates
 


--------------------------------------------------------------------------------------------------------


 ion  position               nearest neighbor table
   1  0.000  0.000  0.252-   7 2.57   3 2.57   4 2.57   2 2.57   6 2.57   8 2.57  12 2.57  10 2.57
                            16 2.57
   2  0.333  0.000  0.252-   8 2.57   9 2.57   5 2.57   1 2.57   3 2.57  11 2.57   4 2.57  10 2.57
                            17 2.57
   3  0.667  0.000  0.252-   1 2.57   7 2.57   6 2.57   9 2.57   2 2.57  12 2.57   5 2.57  18 2.57
                            11 2.57
   4  0.000  0.333  0.252-   5 2.57   6 2.57   1 2.57   7 2.57   2 2.57  13 2.57   9 2.57  10 2.57
                            15 2.57
   5  0.333  0.333  0.252-   4 2.57   2 2.57   7 2.57  13 2.57   8 2.57   6 2.57   3 2.57  11 2.57
                            14 2.57
   6  0.667  0.333  0.252-   4 2.57   9 2.57  15 2.57   3 2.57   1 2.57   8 2.57  14 2.57   5 2.57
                            12 2.57
   7  0.000  0.667  0.252-   1 2.57   3 2.57  16 2.57  18 2.57   4 2.57   5 2.57   8 2.57   9 2.57
                            13 2.57
   8  0.333  0.667  0.252-   9 2.57   2 2.57  17 2.57   6 2.57   1 2.57   7 2.57   5 2.57  14 2.57
                            16 2.57
   9  0.667  0.667  0.252-   8 2.57   6 2.57   2 2.57  17 2.57   3 2.57   7 2.57   4 2.57  15 2.57
                            18 2.57
  10  0.111  0.111  0.351-  26 2.55  19 2.55  11 2.57  12 2.57  13 2.57   1 2.57   2 2.57   4 2.57
                            15 2.57  16 2.57  17 2.57  20 2.57
  11  0.444  0.111  0.351-  27 2.56  20 2.56  21 2.56  10 2.57  13 2.57   2 2.57  17 2.57  14 2.57
                            12 2.57   5 2.57   3 2.57  18 2.57
  12  0.778  0.111  0.351-  19 2.55  25 2.55  15 2.57  10 2.57  14 2.57  18 2.57   3 2.57   1 2.57
                            16 2.57  11 2.57   6 2.57  21 2.57
  13  0.111  0.444  0.351-  22 2.56  23 2.56  20 2.56  16 2.57  18 2.57  10 2.57  11 2.57  14 2.57
                             5 2.57   4 2.57   7 2.57  15 2.57
  14  0.444  0.444  0.351-  24 2.56  21 2.56  23 2.56  15 2.57  17 2.57  12 2.57  16 2.57  13 2.57
                            11 2.57   6 2.57   8 2.57   5 2.57
  15  0.778  0.444  0.351-  19 2.55  24 2.56  22 2.56  14 2.57  17 2.57  12 2.57   6 2.57  18 2.57
                            10 2.57   9 2.57  13 2.57   4 2.57
  16  0.111  0.778  0.351-  25 2.55  26 2.55  18 2.57  13 2.57   7 2.57  14 2.57  17 2.57  12 2.57
                            10 2.57   8 2.57   1 2.57  23 2.57
  17  0.444  0.778  0.351-  26 2.55  27 2.56  24 2.56  14 2.57  15 2.57   8 2.57   9 2.57  11 2.57
                            16 2.57  18 2.57  10 2.57   2 2.57
  18  0.778  0.778  0.351-  25 2.55  22 2.56  27 2.56  16 2.57  13 2.57   7 2.57  15 2.57  12 2.57
                            17 2.57   9 2.57   3 2.57  11 2.57
  19  0.889  0.222  0.448-  12 2.55  10 2.55  15 2.55  25 2.56  26 2.56  28 2.56  22 2.57  24 2.57
                            21 2.57  20 2.57  32 2.57  31 2.57
  20  0.223  0.223  0.449-  23 2.55  21 2.55  11 2.56  13 2.56  27 2.57  22 2.57  29 2.57  31 2.57
                            10 2.57  26 2.57  19 2.57  36 2.66
  21  0.555  0.223  0.449-  20 2.55  23 2.55  14 2.56  11 2.56  24 2.57  27 2.57  32 2.57  30 2.57
                            12 2.57  19 2.57  25 2.57  36 2.66
  22  0.889  0.556  0.449-  18 2.56  15 2.56  13 2.56  31 2.56  33 2.56  24 2.56  27 2.56  23 2.57
                            20 2.57  19 2.57  25 2.57  35 2.57
  23  0.223  0.555  0.449-  20 2.55  21 2.55  13 2.56  14 2.56  22 2.57  24 2.57  33 2.57  34 2.57
                            16 2.57  25 2.57  26 2.57  36 2.66
  24  0.556  0.556  0.449-  15 2.56  17 2.56  14 2.56  32 2.56  34 2.56  22 2.56  27 2.56  21 2.57
                            23 2.57  19 2.57  26 2.57  35 2.57
  25  0.889  0.889  0.448-  12 2.55  16 2.55  18 2.55  19 2.56  26 2.56  28 2.56  22 2.57  27 2.57
                            21 2.57  23 2.57  33 2.57  30 2.57
  26  0.222  0.889  0.448-  10 2.55  16 2.55  17 2.55  25 2.56  19 2.56  28 2.56  27 2.57  24 2.57
                            20 2.57  23 2.57  29 2.57  34 2.57
  27  0.556  0.889  0.449-  17 2.56  18 2.56  11 2.56  29 2.56  30 2.56  24 2.56  22 2.56  20 2.57
                            21 2.57  26 2.57  25 2.57  35 2.57
  28  0.000  0.000  0.547-  33 2.56  30 2.56  31 2.56  29 2.56  32 2.56  34 2.56  25 2.56  19 2.56
                            26 2.56
  29  0.334  0.998  0.547-  34 2.53  35 2.55  28 2.56  27 2.56  20 2.57  26 2.57  30 2.58  36 2.59
                            31 2.59
  30  0.669  0.998  0.547-  33 2.53  35 2.55  28 2.56  27 2.56  21 2.57  25 2.57  29 2.58  36 2.59
                            32 2.59
  31  0.998  0.334  0.547-  32 2.53  35 2.55  28 2.56  22 2.56  20 2.57  19 2.57  33 2.58  36 2.59
                            29 2.59
  32  0.669  0.334  0.547-  31 2.53  35 2.55  28 2.56  24 2.56  21 2.57  19 2.57  34 2.58  36 2.59
                            30 2.59
  33  0.998  0.669  0.547-  30 2.53  35 2.55  28 2.56  22 2.56  23 2.57  25 2.57  31 2.58  36 2.59
                            34 2.59
  34  0.334  0.669  0.547-  29 2.53  35 2.55  28 2.56  24 2.56  23 2.57  26 2.57  32 2.58  36 2.59
                            33 2.59
  35  0.667  0.667  0.548-  34 2.55  32 2.55  29 2.55  30 2.55  33 2.55  31 2.55  24 2.57  27 2.57
                            22 2.57
  36  0.333  0.333  0.553-  37 1.81  31 2.59  29 2.59  33 2.59  32 2.59  34 2.59  30 2.59  23 2.66
                            20 2.66  21 2.66
  37  0.333  0.333  0.638-  38 0.97  36 1.81
  38  0.333  0.333  0.684-  37 0.97
 
  LATTYP: Found a hexagonal cell.
 ALAT       =     7.6967864036
 C/A-ratio  =     2.7653617908
  
  Lattice vectors:
  
 A1 = (  -3.8483927580,  -6.6656128093,   0.0000000000)
 A2 = (   7.6967864037,   0.0000000000,   0.0000000000)
 A3 = (   0.0000000000,   0.0000000000,  21.2843990326)


Analysis of symmetry for initial positions (statically):
=====================================================================
 Subroutine PRICEL returns:
 Original cell was already a primitive cell.
 

 Routine SETGRP: Setting up the symmetry group for a 
 hexagonal supercell.


 Subroutine GETGRP returns: Found  6 space group operations
 (whereof  6 operations were pure point group operations)
 out of a pool of 24 trial point group operations.


The static configuration has the point symmetry C_3v.


Analysis of symmetry for dynamics (positions and initial velocities):
=====================================================================
 Subroutine PRICEL returns:
 Original cell was already a primitive cell.
 

 Routine SETGRP: Setting up the symmetry group for a 
 hexagonal supercell.


 Subroutine GETGRP returns: Found  6 space group operations
 (whereof  6 operations were pure point group operations)
 out of a pool of 24 trial point group operations.


The dynamic configuration has the point symmetry C_3v.


Analysis of constrained symmetry for selective dynamics:
=====================================================================
 Subroutine PRICEL returns:
 Original cell was already a primitive cell.
 

 Routine SETGRP: Setting up the symmetry group for a 
 hexagonal supercell.


 Subroutine GETGRP returns: Found  6 space group operations
 (whereof  6 operations were pure point group operations)
 out of a pool of 24 trial point group operations.


The constrained configuration has the point symmetry C_3v.


 Subroutine INISYM returns: Found  6 space group operations
 (whereof  6 operations are pure point group operations),
 and found     1 'primitive' translations


----------------------------------------------------------------------------------------

                                     Primitive cell                                     

  volume of cell :    1091.9705

  direct lattice vectors                    reciprocal lattice vectors
     7.696786404  0.000000000  0.000000000     0.129924354 -0.075011849  0.000000000
     3.848392758  6.665612809  0.000000000     0.000000000  0.150023716  0.000000000
     0.000000000  0.000000000 21.284399033     0.000000000  0.000000000  0.046982769

  length of vectors
     7.696786404  7.696786404 21.284399033     0.150023716  0.150023716  0.046982769

  position of ions in fractional coordinates (direct lattice)
     0.000000000  0.000000000  0.252370745
     0.333333343  0.000000000  0.252370745
     0.666666687  0.000000000  0.252370745
     1.000000000  0.333333343  0.252370745
     0.333333313  0.333333343  0.252370745
     0.666666687  0.333333343  0.252370745
     1.000000000  0.666666687  0.252370745
     0.333333373  0.666666687  0.252370745
     0.666666627  0.666666687  0.252370745
     0.111111119  0.111111112  0.350790262
     0.444444418  0.111111112  0.350790262
     0.777777791  0.111111112  0.350790262
     0.111111119  0.444444448  0.350790262
     0.444444478  0.444444448  0.350790262
     0.777777731  0.444444448  0.350790262
     0.111111112  0.777777731  0.350790262
     0.444444478  0.777777731  0.350790262
     0.777777851  0.777777731  0.350790262
     0.889204222  0.221591573  0.448178555
     0.222683521  0.222683506  0.449271575
     0.554633018  0.222683506  0.449271575
     0.888736421  0.555631760  0.448957427
     0.222683491  0.554632958  0.449271575
     0.555631820  0.555631760  0.448957427
     0.889204222  0.889204222  0.448178555
     0.221591588  0.889204222  0.448178555
     0.555631760  0.888736421  0.448957427
     0.000000000  0.000000000  0.546649489
     0.333813881  0.997607436  0.547269741
     0.668578713  0.997607436  0.547269741
     0.997607436  0.333813881  0.547269741
     0.668578713  0.333813881  0.547269741
     0.997607436  0.668578713  0.547269741
     0.333813911  0.668578713  0.547269741
     0.666666627  0.666666687  0.547720457
     0.333333313  0.333333343  0.553239903
     0.333333313  0.333333343  0.638499008
     0.333333313  0.333333343  0.683921921

  ion indices of the primitive-cell ions
   primitive index   ion index
                 1           1
                 2           2
                 3           3
                 4           4
                 5           5
                 6           6
                 7           7
                 8           8
                 9           9
                10          10
                11          11
                12          12
                13          13
                14          14
                15          15
                16          16
                17          17
                18          18
                19          19
                20          20
                21          21
                22          22
                23          23
                24          24
                25          25
                26          26
                27          27
                28          28
                29          29
                30          30
                31          31
                32          32
                33          33
                34          34
                35          35
                36          36
                37          37
                38          38

----------------------------------------------------------------------------------------

 
 
 KPOINTS: Automatic mesh                          

Automatic generation of k-mesh.
 Grid dimensions read from file:
 generate k-points for:    8    8    1

 Generating k-lattice:

  Cartesian coordinates                     Fractional coordinates (reciprocal lattice)
     0.016240544 -0.009376481  0.000000000     0.125000000 -0.000000000  0.000000000
     0.000000000  0.018752964  0.000000000     0.000000000  0.125000000  0.000000000
     0.000000000  0.000000000  0.046982769     0.000000000  0.000000000  1.000000000

  Length of vectors
     0.018752964  0.018752964  0.046982769

  Shift w.r.t. Gamma in fractional coordinates (k-lattice)
     0.000000000  0.000000000  0.000000000

 TETIRR: Found     36 inequivalent tetrahedra from      384
 
 Subroutine IBZKPT returns following result:
 ===========================================
 
 Found     10 irreducible k-points:
 
 Following reciprocal coordinates:
            Coordinates               Weight
  0.000000  0.000000  0.000000      1.000000
  0.125000 -0.000000  0.000000      6.000000
  0.250000 -0.000000  0.000000      6.000000
  0.375000 -0.000000  0.000000      6.000000
  0.500000 -0.000000  0.000000      3.000000
  0.250000  0.125000  0.000000      6.000000
  0.375000  0.125000  0.000000     12.000000
  0.500000  0.125000  0.000000     12.000000
  0.500000  0.250000  0.000000      6.000000
 -0.375000  0.250000  0.000000      6.000000
 
 Following cartesian coordinates:
            Coordinates               Weight
  0.000000  0.000000  0.000000      1.000000
  0.016241 -0.009376  0.000000      6.000000
  0.032481 -0.018753  0.000000      6.000000
  0.048722 -0.028129  0.000000      6.000000
  0.064962 -0.037506  0.000000      3.000000
  0.032481  0.000000  0.000000      6.000000
  0.048722 -0.009376  0.000000     12.000000
  0.064962 -0.018753  0.000000     12.000000
  0.064962  0.000000  0.000000      6.000000
 -0.048722  0.065635  0.000000      6.000000
 


--------------------------------------------------------------------------------------------------------




 Dimension of arrays:
   k-points           NKPTS =     10   k-points in BZ     NKDIM =     10   number of bands    NBANDS=    252
   number of dos      NEDOS =    301   number of ions     NIONS =     38
   non local maximal  LDIM  =      6   non local SUM 2l+1 LMDIM =     18
   total plane-waves  NPLWV = 211680
   max r-space proj   IRMAX =   3157   max aug-charges    IRDMAX=  13586
   dimension x,y,z NGX =    42 NGY =   42 NGZ =  120
   dimension x,y,z NGXF=    84 NGYF=   84 NGZF=  240
   support grid    NGXF=    84 NGYF=   84 NGZF=  240
   ions per type =              35   1   1   1
   NGX,Y,Z   is equivalent  to a cutoff of   9.07,  9.07,  9.37 a.u.
   NGXF,Y,Z  is equivalent  to a cutoff of  18.14, 18.14, 18.75 a.u.

 SYSTEM =  unknown system                          
 POSCAR =  Cu-Ti-OH                                

 Startparameter for this run:
   NWRITE =      2    write-flag & timer
   PREC   = normal    normal or accurate (medium, high low for compatibility)
   ISTART =      0    job   : 0-new  1-cont  2-samecut
   ICHARG =     11    charge: 1-file 2-atom 10-const
   ISPIN  =      1    spin polarized calculation?
   LNONCOLLINEAR =      F non collinear calculations
   LSORBIT =      F    spin-orbit coupling
   INIWAV =      1    electr: 0-lowe 1-rand  2-diag
   LASPH  =      F    aspherical Exc in radial PAW
   METAGGA=      F    non-selfconsistent MetaGGA calc.

 Electronic Relaxation 1
   ENCUT  =  500.0 eV  36.75 Ry    6.06 a.u.  14.03 14.03 38.81*2*pi/ulx,y,z
   ENINI  =  500.0     initial cutoff
   ENAUG  =  605.4 eV  augmentation charge cutoff
   NELM   =    150;   NELMIN=  2; NELMDL= -5     # of ELM steps 
   EDIFF  = 0.1E-04   stopping-criterion for ELM
   LREAL  =      T    real-space projection
   NLSPLINE    = F    spline interpolate recip. space projectors
   LCOMPAT=      F    compatible to vasp.4.4
   GGA_COMPAT  = T    GGA compatible to vasp.4.4-vasp.4.6
   LMAXPAW     = -100 max onsite density
   LMAXMIX     =    2 max onsite mixed and CHGCAR
   VOSKOWN=      0    Vosko Wilk Nusair interpolation
   ROPT   =   -0.00050  -0.00050  -0.00050  -0.00050
 Ionic relaxation
   EDIFFG = -.1E-01   stopping-criterion for IOM
   NSW    =      0    number of steps for IOM
   NBLOCK =      1;   KBLOCK =      1    inner block; outer block 
   IBRION =     -1    ionic relax: 0-MD 1-quasi-New 2-CG
   NFREE  =      1    steps in history (QN), initial steepest desc. (CG)
   ISIF   =      2    stress and relaxation
   IWAVPR =     10    prediction:  0-non 1-charg 2-wave 3-comb
   ISYM   =      2    0-nonsym 1-usesym 2-fastsym
   LCORR  =      T    Harris-Foulkes like correction to forces

   POTIM  = 0.5000    time-step for ionic-motion
   TEIN   =    0.0    initial temperature
   TEBEG  =    0.0;   TEEND  =   0.0 temperature during run
   SMASS  =  -3.00    Nose mass-parameter (am)
   estimated Nose-frequenzy (Omega)   =  0.10E-29 period in steps = 0.13E+47 mass=  -0.135E-26a.u.
   SCALEE = 1.0000    scale energy and forces
   NPACO  =    256;   APACO  = 16.0  distance and # of slots for P.C.
   PSTRESS=    0.0 pullay stress

  Mass of Ions in am
   POMASS =  63.55 47.88 16.00  1.00
  Ionic Valenz
   ZVAL   =  11.00  4.00  6.00  1.00
  Atomic Wigner-Seitz radii
   RWIGS  =  -1.00 -1.00 -1.00 -1.00
  virtual crystal weights 
   VCA    =   1.00  1.00  1.00  1.00
   NELECT =     396.0000    total number of electrons
   NUPDOWN=      -1.0000    fix difference up-down

 DOS related values:
   EMIN   =  10.00;   EMAX   =-10.00  energy-range for DOS
   EFERMI =   0.00
   ISMEAR =    -5;   SIGMA  =   0.10  broadening in eV -4-tet -1-fermi 0-gaus

 Electronic relaxation 2 (details)
   IALGO  =     68    algorithm
   LDIAG  =      T    sub-space diagonalisation (order eigenvalues)
   LSUBROT=      F    optimize rotation matrix (better conditioning)
   TURBO    =      0    0=normal 1=particle mesh
   IRESTART =      0    0=no restart 2=restart with 2 vectors
   NREBOOT  =      0    no. of reboots
   NMIN     =      0    reboot dimension
   EREF     =   0.00    reference energy to select bands
   IMIX   =      4    mixing-type and parameters
     AMIX     =   0.40;   BMIX     =  1.00
     AMIX_MAG =   1.60;   BMIX_MAG =  1.00
     AMIN     =   0.10
     WC   =   100.;   INIMIX=   1;  MIXPRE=   1;  MAXMIX= -45

 Intra band minimization:
   WEIMIN = 0.0000     energy-eigenvalue tresh-hold
   EBREAK =  0.99E-08  absolut break condition
   DEPER  =   0.30     relativ break condition  

   TIME   =   0.40     timestep for ELM

  volume/ion in A,a.u.               =      28.74       193.92
  Fermi-wavevector in a.u.,A,eV,Ry     =   1.167445  2.206150 18.543744  1.362927
  Thomas-Fermi vector in A             =   2.303945
 
 Write flags
   LWAVE        =      F    write WAVECAR
   LDOWNSAMPLE  =      F    k-point downsampling of WAVECAR
   LCHARG       =      F    write CHGCAR
   LVTOT        =      F    write LOCPOT, total local potential
   LVHAR        =      F    write LOCPOT, Hartree potential only
   LELF         =      F    write electronic localiz. function (ELF)
   LORBIT       =     10    0 simple, 1 ext, 2 COOP (PROOUT), +10 PAW based schemes


 Dipole corrections
   LMONO  =      F    monopole corrections only (constant potential shift)
   LDIPOL =      F    correct potential (dipole corrections)
   IDIPOL =      0    1-x, 2-y, 3-z, 4-all directions 
   EPSILON=  1.0000000 bulk dielectric constant

 Exchange correlation treatment:
   GGA     =    --    GGA type
   LEXCH   =     8    internal setting for exchange type
   VOSKOWN=      0    Vosko Wilk Nusair interpolation
   LHFCALC =     F    Hartree Fock is set to
   LHFONE  =     F    Hartree Fock one center treatment
   AEXX    =    0.0000 exact exchange contribution

 Linear response parameters
   LEPSILON=     F    determine dielectric tensor
   LRPA    =     F    only Hartree local field effects (RPA)
   LNABLA  =     F    use nabla operator in PAW spheres
   LVEL    =     F    velocity operator in full k-point grid
   LINTERFAST=   F  fast interpolation
   KINTER  =     0    interpolate to denser k-point grid
   CSHIFT  =0.1000    complex shift for real part using Kramers Kronig
   OMEGAMAX=  -1.0    maximum frequency
   DEG_THRESHOLD= 0.2000000E-02 threshold for treating states as degnerate
   RTIME   =   -0.100 relaxation time in fs
  (WPLASMAI=    0.000 imaginary part of plasma frequency in eV, 0.658/RTIME)
   DFIELD  = 0.0000000 0.0000000 0.0000000 field for delta impulse in time
 
 Orbital magnetization related:
   ORBITALMAG=     F  switch on orbital magnetization
   LCHIMAG   =     F  perturbation theory with respect to B field
   DQ        =  0.001000  dq finite difference perturbation B field
   LLRAUG    =     F  two centre corrections for induced B field



--------------------------------------------------------------------------------------------------------


 Static calculation
 charge density and potential remain constant during run
 non-spin polarized calculation
 RMM-DIIS sequential band-by-band and
  variant of blocked Davidson during initial phase
 perform sub-space diagonalisation
    before iterative eigenvector-optimisation
 no mixing
 using additional bands           54
 real space projection scheme for non local part
 use partial core corrections
 calculate Harris-corrections to forces 
   (improved forces if not selfconsistent)
 use gradient corrections 
 WARNING: stress and forces are not correct
  (second derivative of E(xc) not defined)
 use of overlap-Matrix (Vanderbilt PP)
 Fermi weights with tetrahedron method with Bloechl corrections


--------------------------------------------------------------------------------------------------------


  energy-cutoff  :      500.00
  volume of cell :     1091.97
      direct lattice vectors                 reciprocal lattice vectors
     7.696786404  0.000000000  0.000000000     0.129924354 -0.075011849  0.000000000
     3.848392758  6.665612809  0.000000000     0.000000000  0.150023716  0.000000000
     0.000000000  0.000000000 21.284399033     0.000000000  0.000000000  0.046982769

  length of vectors
     7.696786404  7.696786404 21.284399033     0.150023716  0.150023716  0.046982769


 
 k-points in units of 2pi/SCALE and weight: Automatic mesh                          
   0.00000000  0.00000000  0.00000000       0.016
   0.01624054 -0.00937648  0.00000000       0.094
   0.03248109 -0.01875296  0.00000000       0.094
   0.04872163 -0.02812944  0.00000000       0.094
   0.06496218 -0.03750592  0.00000000       0.047
   0.03248109  0.00000000  0.00000000       0.094
   0.04872163 -0.00937648  0.00000000       0.188
   0.06496218 -0.01875296  0.00000000       0.188
   0.06496218  0.00000000  0.00000000       0.094
  -0.04872163  0.06563537  0.00000000       0.094
 
 k-points in reciprocal lattice and weights: Automatic mesh                          
   0.00000000  0.00000000  0.00000000       0.016
   0.12500000 -0.00000000  0.00000000       0.094
   0.25000000 -0.00000000  0.00000000       0.094
   0.37500000 -0.00000000  0.00000000       0.094
   0.50000000 -0.00000000  0.00000000       0.047
   0.25000000  0.12500000  0.00000000       0.094
   0.37500000  0.12500000  0.00000000       0.188
   0.50000000  0.12500000  0.00000000       0.188
   0.50000000  0.25000000  0.00000000       0.094
  -0.37500000  0.25000000  0.00000000       0.094
 
 position of ions in fractional coordinates (direct lattice) 
   0.00000000  0.00000000  0.25237075
   0.33333334  0.00000000  0.25237075
   0.66666669  0.00000000  0.25237075
   0.00000000  0.33333334  0.25237075
   0.33333331  0.33333334  0.25237075
   0.66666669  0.33333334  0.25237075
   0.00000000  0.66666669  0.25237075
   0.33333337  0.66666669  0.25237075
   0.66666663  0.66666669  0.25237075
   0.11111112  0.11111111  0.35079026
   0.44444442  0.11111111  0.35079026
   0.77777779  0.11111111  0.35079026
   0.11111112  0.44444445  0.35079026
   0.44444448  0.44444445  0.35079026
   0.77777773  0.44444445  0.35079026
   0.11111111  0.77777773  0.35079026
   0.44444448  0.77777773  0.35079026
   0.77777785  0.77777773  0.35079026
   0.88920422  0.22159157  0.44817855
   0.22268352  0.22268351  0.44927157
   0.55463302  0.22268351  0.44927157
   0.88873642  0.55563176  0.44895743
   0.22268349  0.55463296  0.44927157
   0.55563182  0.55563176  0.44895743
   0.88920422  0.88920422  0.44817855
   0.22159159  0.88920422  0.44817855
   0.55563176  0.88873642  0.44895743
   0.00000000  0.00000000  0.54664949
   0.33381388  0.99760744  0.54726974
   0.66857871  0.99760744  0.54726974
   0.99760744  0.33381388  0.54726974
   0.66857871  0.33381388  0.54726974
   0.99760744  0.66857871  0.54726974
   0.33381391  0.66857871  0.54726974
   0.66666663  0.66666669  0.54772046
   0.33333331  0.33333334  0.55323990
   0.33333331  0.33333334  0.63849901
   0.33333331  0.33333334  0.68392192
 
 position of ions in cartesian coordinates  (Angst):
   0.00000000  0.00000000  5.37155964
   2.56559554  0.00000000  5.37155964
   5.13119109  0.00000000  5.37155964
   1.28279762  2.22187100  5.37155964
   3.84839293  2.22187100  5.37155964
   6.41398872  2.22187100  5.37155964
   2.56559525  4.44374201  5.37155964
   5.13119102  4.44374201  5.37155964
   7.69678588  4.44374201  5.37155964
   1.28279775  0.74062365  7.46635991
   3.84839295  0.74062365  7.46635991
   6.41398873  0.74062365  7.46635991
   2.56559535  2.96249461  7.46635991
   5.13119101  2.96249461  7.46635991
   7.69678586  2.96249461  7.46635991
   3.84839268  5.18436521  7.46635991
   6.41398840  5.18436521  7.46635991
   8.97958418  5.18436521  7.46635991
   7.69678637  1.47704362  9.53921119
   2.57092109  1.48432203  9.56247547
   5.12586547  1.48432203  9.56247547
   8.97870364  3.70362617  9.55578902
   3.84839272  3.69696855  9.56247547
   6.41486867  3.70362617  9.55578902
  10.26602205  5.92709105  9.53921119
   5.12755021  5.92709105  9.53921119
   7.69678578  5.92397287  9.55578902
   0.00000000  0.00000000 11.63510585
   6.40847937  6.64966491 11.64830754
   8.98509278  6.64966491 11.64830754
   8.96301827  2.22507408 11.64830754
   6.43055447  2.22507408 11.64830754
  10.25132483  4.45648683 11.64830754
   5.14224785  4.45648683 11.64830754
   7.69678588  4.44374201 11.65790077
   3.84839293  2.22187100 11.77537885
   3.84839293  2.22187100 13.59006767
   3.84839293  2.22187100 14.55686708
 


--------------------------------------------------------------------------------------------------------


 k-point   1 :   0.0000 0.0000 0.0000  plane waves:   27671
 k-point   2 :   0.1250-0.0000 0.0000  plane waves:   27649
 k-point   3 :   0.2500-0.0000 0.0000  plane waves:   27714
 k-point   4 :   0.3750-0.0000 0.0000  plane waves:   27740
 k-point   5 :   0.5000-0.0000 0.0000  plane waves:   27782
 k-point   6 :   0.2500 0.1250 0.0000  plane waves:   27698
 k-point   7 :   0.3750 0.1250 0.0000  plane waves:   27702
 k-point   8 :   0.5000 0.1250 0.0000  plane waves:   27747
 k-point   9 :   0.5000 0.2500 0.0000  plane waves:   27734
 k-point  10 :  -0.3750 0.2500 0.0000  plane waves:   27782

 maximum and minimum number of plane-waves per node :     27782    27649

 maximum number of plane-waves:     27782
 maximum index in each direction: 
   IXMAX=   14   IYMAX=   14   IZMAX=   38
   IXMIN=  -14   IYMIN=  -14   IZMIN=  -38


 serial   3D FFT for wavefunctions
 parallel 3D FFT for charge:
    minimum data exchange during FFTs selected (reduces bandwidth)


 total amount of memory used by VASP MPI-rank0   105228. kBytes
=======================================================================

   base      :      30000. kBytes
   nonlr-proj:      17839. kBytes
   fftplans  :       2916. kBytes
   grid      :      12878. kBytes
   one-center:        590. kBytes
   wavefun   :      41005. kBytes
 
     INWAV:  cpu time    0.0000: real time    0.0000
 initial charge density was supplied:
 number of electron     396.0000104 magnetization 
 keeping initial charge density in first step


--------------------------------------------------------------------------------------------------------


 Maximum index for non-local projection operator         3006
 Maximum index for augmentation-charges          612 (set IRDMAX)


--------------------------------------------------------------------------------------------------------


 First call to EWALD:  gamma=   0.172
 Maximum number of real-space cells 4x 4x 2
 Maximum number of reciprocal cells 2x 2x 5

    FEWALD:  cpu time    0.0013: real time    0.0013


--------------------------------------- Iteration      1(   1)  ---------------------------------------


    POTLOK:  cpu time    0.0270: real time    0.0274
    SETDIJ:  cpu time    0.0044: real time    0.0045
     EDDAV:  cpu time    5.7202: real time    5.7219
 BZINTS: Fermi energy:   13.412844;  396.000000 electrons
         Band energy: 0.261724E+04;  BLOECHL correction:   -0.036252
       DOS:  cpu time    0.0104: real time    0.0105
    --------------------------------------------
      LOOP:  cpu time    5.7620: real time    5.7643

 eigenvalue-minimisations  :  5040
 total energy-change (2. order) : 0.3527374E+04  (-0.1689620E+05)
 number of electron     396.0000104 magnetization 
 augmentation part      396.0000104 magnetization 

 Free energy of the ion-electron system (eV)
  ---------------------------------------------------
  alpha Z        PSCENC =       885.09634410
  Ewald energy   TEWEN  =    143708.98305012
  -Hartree energ DENC   =   -190729.96307494
  -exchange      EXHF   =         0.00000000
  -V(xc)+E(xc)   XCENC  =      1552.52330070
  PAW double counting   =     46523.35864121   -50253.68192068
  entropy T*S    EENTRO =         0.00000000
  eigenvalues    EBANDS =      2617.24280073
  atomic energy  EATOM  =     49223.81459310
  Solvation  Ediel_sol  =         0.00000000
  ---------------------------------------------------
  free energy    TOTEN  =      3527.37373435 eV

  energy without entropy =     3527.37373435  energy(sigma->0) =     3527.37373435


--------------------------------------------------------------------------------------------------------




--------------------------------------- Iteration      1(   2)  ---------------------------------------


     EDDAV:  cpu time    5.6951: real time    5.6953
 BZINTS: Fermi energy:    3.032475;  396.000000 electrons
         Band energy:-0.575754E+03;  BLOECHL correction:   -0.028881
       DOS:  cpu time    0.0102: real time    0.0102
    --------------------------------------------
      LOOP:  cpu time    5.7053: real time    5.7055

 eigenvalue-minimisations  :  5040
 total energy-change (2. order) :-0.3192997E+04  (-0.3062188E+04)
 number of electron     396.0000104 magnetization 
 augmentation part      396.0000104 magnetization 

 Free energy of the ion-electron system (eV)
  ---------------------------------------------------
  alpha Z        PSCENC =       885.09634410
  Ewald energy   TEWEN  =    143708.98305012
  -Hartree energ DENC   =   -190729.96307494
  -exchange      EXHF   =         0.00000000
  -V(xc)+E(xc)   XCENC  =      1552.52330070
  PAW double counting   =     46523.35864121   -50253.68192068
  entropy T*S    EENTRO =         0.00000000
  eigenvalues    EBANDS =      -575.75419014
  atomic energy  EATOM  =     49223.81459310
  Solvation  Ediel_sol  =         0.00000000
  ---------------------------------------------------
  free energy    TOTEN  =       334.37674347 eV

  energy without entropy =      334.37674347  energy(sigma->0) =      334.37674347


--------------------------------------------------------------------------------------------------------




--------------------------------------- Iteration      1(   3)  ---------------------------------------


     EDDAV:  cpu time    6.7175: real time    6.7178
 BZINTS: Fermi energy:    0.463784;  396.000000 electrons
         Band energy:-0.102214E+04;  BLOECHL correction:   -0.051302
       DOS:  cpu time    0.0100: real time    0.0100
    --------------------------------------------
      LOOP:  cpu time    6.7275: real time    6.7278

 eigenvalue-minimisations  :  6160
 total energy-change (2. order) :-0.4463809E+03  (-0.4134057E+03)
 number of electron     396.0000104 magnetization 
 augmentation part      396.0000104 magnetization 

 Free energy of the ion-electron system (eV)
  ---------------------------------------------------
  alpha Z        PSCENC =       885.09634410
  Ewald energy   TEWEN  =    143708.98305012
  -Hartree energ DENC   =   -190729.96307494
  -exchange      EXHF   =         0.00000000
  -V(xc)+E(xc)   XCENC  =      1552.52330070
  PAW double counting   =     46523.35864121   -50253.68192068
  entropy T*S    EENTRO =         0.00000000
  eigenvalues    EBANDS =     -1022.13505205
  atomic energy  EATOM  =     49223.81459310
  Solvation  Ediel_sol  =         0.00000000
  ---------------------------------------------------
  free energy    TOTEN  =      -112.00411843 eV

  energy without entropy =     -112.00411843  energy(sigma->0) =     -112.00411843


--------------------------------------------------------------------------------------------------------




--------------------------------------- Iteration      1(   4)  ---------------------------------------


     EDDAV:  cpu time    7.9867: real time    7.9869
 BZINTS: Fermi energy:    0.345505;  396.000000 electrons
         Band energy:-0.105121E+04;  BLOECHL correction:   -0.053690
       DOS:  cpu time    0.0104: real time    0.0104
    --------------------------------------------
      LOOP:  cpu time    7.9971: real time    7.9972

 eigenvalue-minimisations  :  7560
 total energy-change (2. order) :-0.2907786E+02  (-0.2808860E+02)
 number of electron     396.0000104 magnetization 
 augmentation part      396.0000104 magnetization 

 Free energy of the ion-electron system (eV)
  ---------------------------------------------------
  alpha Z        PSCENC =       885.09634410
  Ewald energy   TEWEN  =    143708.98305012
  -Hartree energ DENC   =   -190729.96307494
  -exchange      EXHF   =         0.00000000
  -V(xc)+E(xc)   XCENC  =      1552.52330070
  PAW double counting   =     46523.35864121   -50253.68192068
  entropy T*S    EENTRO =         0.00000000
  eigenvalues    EBANDS =     -1051.21291396
  atomic energy  EATOM  =     49223.81459310
  Solvation  Ediel_sol  =         0.00000000
  ---------------------------------------------------
  free energy    TOTEN  =      -141.08198034 eV

  energy without entropy =     -141.08198034  energy(sigma->0) =     -141.08198034


--------------------------------------------------------------------------------------------------------




--------------------------------------- Iteration      1(   5)  ---------------------------------------


     EDDAV:  cpu time    6.4120: real time    6.4121
 BZINTS: Fermi energy:    0.342684;  396.000000 electrons
         Band energy:-0.105172E+04;  BLOECHL correction:   -0.054137
       DOS:  cpu time    0.0104: real time    0.0104
    --------------------------------------------
      LOOP:  cpu time    6.4224: real time    6.4225

 eigenvalue-minimisations  :  5824
 total energy-change (2. order) :-0.5062864E+00  (-0.5052437E+00)
 number of electron     396.0000104 magnetization 
 augmentation part      396.0000104 magnetization 

 Free energy of the ion-electron system (eV)
  ---------------------------------------------------
  alpha Z        PSCENC =       885.09634410
  Ewald energy   TEWEN  =    143708.98305012
  -Hartree energ DENC   =   -190729.96307494
  -exchange      EXHF   =         0.00000000
  -V(xc)+E(xc)   XCENC  =      1552.52330070
  PAW double counting   =     46523.35864121   -50253.68192068
  entropy T*S    EENTRO =         0.00000000
  eigenvalues    EBANDS =     -1051.71920034
  atomic energy  EATOM  =     49223.81459310
  Solvation  Ediel_sol  =         0.00000000
  ---------------------------------------------------
  free energy    TOTEN  =      -141.58826672 eV

  energy without entropy =     -141.58826672  energy(sigma->0) =     -141.58826672


--------------------------------------------------------------------------------------------------------




--------------------------------------- Iteration      1(   6)  ---------------------------------------


    EDDIAG:  cpu time    1.0522: real time    1.0524
  RMM-DIIS:  cpu time    3.1037: real time    3.1037
    ORTHCH:  cpu time    0.2082: real time    0.2082
 BZINTS: Fermi energy:    0.342625;  396.000000 electrons
         Band energy:-0.105173E+04;  BLOECHL correction:   -0.054154
       DOS:  cpu time    0.0099: real time    0.0099
    --------------------------------------------
      LOOP:  cpu time    4.3740: real time    4.3742

 eigenvalue-minimisations  :  5409
 total energy-change (2. order) :-0.7379808E-02  (-0.7360758E-02)
 number of electron     396.0000104 magnetization 
 augmentation part      396.0000104 magnetization 

 Free energy of the ion-electron system (eV)
  ---------------------------------------------------
  alpha Z        PSCENC =       885.09634410
  Ewald energy   TEWEN  =    143708.98305012
  -Hartree energ DENC   =   -190729.96307494
  -exchange      EXHF   =         0.00000000
  -V(xc)+E(xc)   XCENC  =      1552.52330070
  PAW double counting   =     46523.35864121   -50253.68192068
  entropy T*S    EENTRO =         0.00000000
  eigenvalues    EBANDS =     -1051.72658015
  atomic energy  EATOM  =     49223.81459310
  Solvation  Ediel_sol  =         0.00000000
  ---------------------------------------------------
  free energy    TOTEN  =      -141.59564653 eV

  energy without entropy =     -141.59564653  energy(sigma->0) =     -141.59564653


--------------------------------------------------------------------------------------------------------




--------------------------------------- Iteration      1(   7)  ---------------------------------------


    EDDIAG:  cpu time    1.0522: real time    1.0524
  RMM-DIIS:  cpu time    4.3560: real time    4.3560
    ORTHCH:  cpu time    0.2081: real time    0.2081
 BZINTS: Fermi energy:    0.342607;  396.000000 electrons
         Band energy:-0.105173E+04;  BLOECHL correction:   -0.054159
       DOS:  cpu time    0.0099: real time    0.0100
    --------------------------------------------
      LOOP:  cpu time    5.6263: real time    5.6265

 eigenvalue-minimisations  :  7678
 total energy-change (2. order) :-0.3297984E-02  (-0.3209695E-02)
 number of electron     396.0000104 magnetization 
 augmentation part      396.0000104 magnetization 

 Free energy of the ion-electron system (eV)
  ---------------------------------------------------
  alpha Z        PSCENC =       885.09634410
  Ewald energy   TEWEN  =    143708.98305012
  -Hartree energ DENC   =   -190729.96307494
  -exchange      EXHF   =         0.00000000
  -V(xc)+E(xc)   XCENC  =      1552.52330070
  PAW double counting   =     46523.35864121   -50253.68192068
  entropy T*S    EENTRO =         0.00000000
  eigenvalues    EBANDS =     -1051.72987813
  atomic energy  EATOM  =     49223.81459310
  Solvation  Ediel_sol  =         0.00000000
  ---------------------------------------------------
  free energy    TOTEN  =      -141.59894452 eV

  energy without entropy =     -141.59894452  energy(sigma->0) =     -141.59894452


--------------------------------------------------------------------------------------------------------




--------------------------------------- Iteration      1(   8)  ---------------------------------------


    EDDIAG:  cpu time    1.0538: real time    1.0539
  RMM-DIIS:  cpu time    3.4041: real time    3.4042
    ORTHCH:  cpu time    0.2082: real time    0.2082
 BZINTS: Fermi energy:    0.342608;  396.000000 electrons
         Band energy:-0.105173E+04;  BLOECHL correction:   -0.054159
       DOS:  cpu time    0.0099: real time    0.0099
    --------------------------------------------
      LOOP:  cpu time    4.6761: real time    4.6762

 eigenvalue-minimisations  :  5963
 total energy-change (2. order) :-0.1576103E-03  (-0.1616244E-03)
 number of electron     396.0000104 magnetization 
 augmentation part      396.0000104 magnetization 

 Free energy of the ion-electron system (eV)
  ---------------------------------------------------
  alpha Z        PSCENC =       885.09634410
  Ewald energy   TEWEN  =    143708.98305012
  -Hartree energ DENC   =   -190729.96307494
  -exchange      EXHF   =         0.00000000
  -V(xc)+E(xc)   XCENC  =      1552.52330070
  PAW double counting   =     46523.35864121   -50253.68192068
  entropy T*S    EENTRO =         0.00000000
  eigenvalues    EBANDS =     -1051.73003574
  atomic energy  EATOM  =     49223.81459310
  Solvation  Ediel_sol  =         0.00000000
  ---------------------------------------------------
  free energy    TOTEN  =      -141.59910213 eV

  energy without entropy =     -141.59910213  energy(sigma->0) =     -141.59910213


--------------------------------------------------------------------------------------------------------




--------------------------------------- Iteration      1(   9)  ---------------------------------------


    EDDIAG:  cpu time    1.0522: real time    1.0524
  RMM-DIIS:  cpu time    3.9629: real time    3.9629
    ORTHCH:  cpu time    0.2079: real time    0.2079
 BZINTS: Fermi energy:    0.342607;  396.000000 electrons
         Band energy:-0.105173E+04;  BLOECHL correction:   -0.054159
       DOS:  cpu time    0.0097: real time    0.0097
    --------------------------------------------
      LOOP:  cpu time    5.2327: real time    5.2329

 eigenvalue-minimisations  :  6786
 total energy-change (2. order) :-0.4170486E-04  (-0.4044892E-04)
 number of electron     396.0000104 magnetization 
 augmentation part      396.0000104 magnetization 

 Free energy of the ion-electron system (eV)
  ---------------------------------------------------
  alpha Z        PSCENC =       885.09634410
  Ewald energy   TEWEN  =    143708.98305012
  -Hartree energ DENC   =   -190729.96307494
  -exchange      EXHF   =         0.00000000
  -V(xc)+E(xc)   XCENC  =      1552.52330070
  PAW double counting   =     46523.35864121   -50253.68192068
  entropy T*S    EENTRO =         0.00000000
  eigenvalues    EBANDS =     -1051.73007745
  atomic energy  EATOM  =     49223.81459310
  Solvation  Ediel_sol  =         0.00000000
  ---------------------------------------------------
  free energy    TOTEN  =      -141.59914383 eV

  energy without entropy =     -141.59914383  energy(sigma->0) =     -141.59914383


--------------------------------------------------------------------------------------------------------




--------------------------------------- Iteration      1(  10)  ---------------------------------------


    EDDIAG:  cpu time    1.0533: real time    1.0566
  RMM-DIIS:  cpu time    2.4558: real time    2.4558
    ORTHCH:  cpu time    0.2077: real time    0.2077
 BZINTS: Fermi energy:    0.342607;  396.000000 electrons
         Band energy:-0.105173E+04;  BLOECHL correction:   -0.054159
       DOS:  cpu time    0.0089: real time    0.0089
    --------------------------------------------
      LOOP:  cpu time    3.7256: real time    3.7290

 eigenvalue-minimisations  :  3704
 total energy-change (2. order) :-0.2460292E-05  (-0.2137591E-05)
 number of electron     396.0000104 magnetization 
 augmentation part      396.0000104 magnetization 

 Free energy of the ion-electron system (eV)
  ---------------------------------------------------
  alpha Z        PSCENC =       885.09634410
  Ewald energy   TEWEN  =    143708.98305012
  -Hartree energ DENC   =   -190729.96307494
  -exchange      EXHF   =         0.00000000
  -V(xc)+E(xc)   XCENC  =      1552.52330070
  PAW double counting   =     46523.35864121   -50253.68192068
  entropy T*S    EENTRO =         0.00000000
  eigenvalues    EBANDS =     -1051.73007991
  atomic energy  EATOM  =     49223.81459310
  Solvation  Ediel_sol  =         0.00000000
  ---------------------------------------------------
  free energy    TOTEN  =      -141.59914629 eV

  energy without entropy =     -141.59914629  energy(sigma->0) =     -141.59914629


--------------------------------------------------------------------------------------------------------




 average (electrostatic) potential at core
  the test charge radii are     0.9430  1.2598  0.7215  0.5201
  (the norm of the test charge is              1.0000)
       1 -70.6459       2 -70.6412       3 -70.6411       4 -70.6412       5 -70.6531
       6 -70.6409       7 -70.6411       8 -70.6409       9 -70.6422      10 -70.9224
      11 -70.8900      12 -70.9222      13 -70.8900      14 -70.8896      15 -70.9114
      16 -70.9222      17 -70.9113      18 -70.9115      19 -70.9193      20 -71.0729
      21 -71.0728      22 -70.9069      23 -71.0729      24 -70.9066      25 -70.9194
      26 -70.9192      27 -70.9068      28 -70.7214      29 -70.8716      30 -70.8717
      31 -70.8717      32 -70.8715      33 -70.8718      34 -70.8715      35 -70.7023
      36 -30.2080      37 -76.3061      38 -40.7132
 
 
 
 E-fermi :   0.3426     XC(G=0):  -5.9777     alpha+bet : -5.3495

 Fermi energy:         0.3426074883

 k-point     1 :       0.0000    0.0000    0.0000
  band No.  band energies     occupation 
      1     -19.7919      2.00000
      2      -8.5019      2.00000
      3      -7.9582      2.00000
      4      -7.1538      2.00000
      5      -5.5787      2.00000
      6      -5.5054      2.00000
      7      -5.5053      2.00000
      8      -5.4956      2.00000
      9      -5.4845      2.00000
     10      -5.4844      2.00000
     11      -5.3991      2.00000
     12      -4.7501      2.00000
     13      -4.7501      2.00000
     14      -4.7499      2.00000
     15      -4.7335      2.00000
     16      -4.7290      2.00000
     17      -4.7289      2.00000
     18      -4.5630      2.00000
     19      -4.0935      2.00000
     20      -4.0934      2.00000
     21      -4.0634      2.00000
     22      -4.0633      2.00000
     23      -4.0554      2.00000
     24      -3.9406      2.00000
     25      -3.8751      2.00000
     26      -3.8750      2.00000
     27      -3.7507      2.00000
     28      -3.7482      2.00000
     29      -3.7482      2.00000
     30      -3.7330      2.00000
     31      -3.7330      2.00000
     32      -3.7142      2.00000
     33      -3.5875      2.00000
     34      -3.5875      2.00000
     35      -3.5626      2.00000
     36      -3.5606      2.00000
     37      -3.5606      2.00000
     38      -3.5579      2.00000
     39      -3.5508      2.00000
     40      -3.5292      2.00000
     41      -3.5291      2.00000
     42      -3.5223      2.00000
     43      -3.5024      2.00000
     44      -3.5024      2.00000
     45      -3.4624      2.00000
     46      -3.4624      2.00000
     47      -3.3964      2.00000
     48      -3.3964      2.00000
     49      -3.3187      2.00000
     50      -3.2946      2.00000
     51      -3.2823      2.00000
     52      -3.2459      2.00000
     53      -3.2391      2.00000
     54      -3.2391      2.00000
     55      -3.1979      2.00000
     56      -3.1979      2.00000
     57      -3.1741      2.00000
     58      -3.1616      2.00000
     59      -2.9174      2.00000
     60      -2.8976      2.00000
     61      -2.8976      2.00000
     62      -2.8937      2.00000
     63      -2.8592      2.00000
     64      -2.8592      2.00000
     65      -2.8202      2.00000
     66      -2.8202      2.00000
     67      -2.8065      2.00000
     68      -2.7743      2.00000
     69      -2.7743      2.00000
     70      -2.7589      2.00000
     71      -2.7588      2.00000
     72      -2.7400      2.00000
     73      -2.7399      2.00000
     74      -2.7224      2.00000
     75      -2.7041      2.00000
     76      -2.6608      2.00000
     77      -2.6488      2.00000
     78      -2.6488      2.00000
     79      -2.5945      2.00000
     80      -2.5945      2.00000
     81      -2.5592      2.00000
     82      -2.5591      2.00000
     83      -2.5524      2.00000
     84      -2.5488      2.00000
     85      -2.5488      2.00000
     86      -2.5393      2.00000
     87      -2.5393      2.00000
     88      -2.5129      2.00000
     89      -2.4773      2.00000
     90      -2.4655      2.00000
     91      -2.4654      2.00000
     92      -2.4379      2.00000
     93      -2.4379      2.00000
     94      -2.4345      2.00000
     95      -2.4220      2.00000
     96      -2.4219      2.00000
     97      -2.3777      2.00000
     98      -2.3682      2.00000
     99      -2.3682      2.00000
    100      -2.3339      2.00000
    101      -2.3339      2.00000
    102      -2.3250      2.00000
    103      -2.3249      2.00000
    104      -2.3219      2.00000
    105      -2.3046      2.00000
    106      -2.3046      2.00000
    107      -2.2891      2.00000
    108      -2.2891      2.00000
    109      -2.2636      2.00000
    110      -2.2174      2.00000
    111      -2.2174      2.00000
    112      -2.0770      2.00000
    113      -2.0712      2.00000
    114      -2.0645      2.00000
    115      -2.0645      2.00000
    116      -2.0518      2.00000
    117      -2.0448      2.00000
    118      -2.0448      2.00000
    119      -2.0104      2.00000
    120      -2.0104      2.00000
    121      -2.0006      2.00000
    122      -1.9859      2.00000
    123      -1.9646      2.00000
    124      -1.9516      2.00000
    125      -1.9516      2.00000
    126      -1.8749      2.00000
    127      -1.8749      2.00000
    128      -1.8708      2.00000
    129      -1.8708      2.00000
    130      -1.8507      2.00000
    131      -1.8507      2.00000
    132      -1.8368      2.00000
    133      -1.7877      2.00000
    134      -1.7877      2.00000
    135      -1.7750      2.00000
    136      -1.7750      2.00000
    137      -1.7704      2.00000
    138      -1.7330      2.00000
    139      -1.7317      2.00000
    140      -1.7253      2.00000
    141      -1.7253      2.00000
    142      -1.7084      2.00000
    143      -1.7083      2.00000
    144      -1.6541      2.00000
    145      -1.6541      2.00000
    146      -1.6380      2.00000
    147      -1.6190      2.00000
    148      -1.6190      2.00000
    149      -1.6015      2.00000
    150      -1.5955      2.00000
    151      -1.5873      2.00000
    152      -1.5873      2.00000
    153      -1.5675      2.00000
    154      -1.5608      2.00000
    155      -1.5608      2.00000
    156      -1.5398      2.00000
    157      -1.5397      2.00000
    158      -1.5261      2.00000
    159      -1.5251      2.00000
    160      -1.5168      2.00000
    161      -1.4813      2.00000
    162      -1.4768      2.00000
    163      -1.4768      2.00000
    164      -1.4545      2.00000
    165      -1.4545      2.00000
    166      -1.4540      2.00000
    167      -1.4540      2.00000
    168      -1.4506      2.00000
    169      -1.4323      2.00000
    170      -1.4184      2.00000
    171      -1.4184      2.00000
    172      -1.4038      2.00000
    173      -1.4038      2.00000
    174      -1.3796      2.00000
    175      -1.3796      2.00000
    176      -1.3594      2.00000
    177      -1.3531      2.00000
    178      -1.3531      2.00000
    179      -1.3472      2.00000
    180      -1.3453      2.00000
    181      -1.3452      2.00000
    182      -1.3437      2.00000
    183      -1.3424      2.00000
    184      -1.3380      2.00000
    185      -1.3353      2.00000
    186      -1.3353      2.00000
    187      -1.2801      2.00000
    188      -1.2801      2.00000
    189      -1.2435      2.00000
    190      -1.2435      2.00000
    191      -1.2416      2.00000
    192      -1.2323      2.00000
    193      -1.2306      2.00000
    194      -1.2306      2.00000
    195      -0.8736      2.00000
    196      -0.1811      2.00000
    197      -0.1100      2.00000
    198      -0.1100      2.00000
    199      -0.0269      2.00000
    200       0.0279      2.00000
    201       0.0279      2.00000
    202       0.1329      2.20453
    203       0.8290      0.00000
    204       0.8290      0.00000
    205       1.5399      0.00000
    206       1.5400      0.00000
    207       1.5577      0.00000
    208       2.2732      0.00000
    209       2.2732      0.00000
    210       2.2906      0.00000
    211       2.5593      0.00000
    212       2.5593      0.00000
    213       3.4770      0.00000
    214       3.7041      0.00000
    215       3.8096      0.00000
    216       3.9971      0.00000
    217       3.9971      0.00000
    218       4.1288      0.00000
    219       4.1288      0.00000
    220       4.3455      0.00000
    221       4.5140      0.00000
    222       4.7355      0.00000
    223       4.7355      0.00000
    224       4.7828      0.00000
    225       4.8286      0.00000
    226       4.8286      0.00000
    227       4.9799      0.00000
    228       4.9799      0.00000
    229       5.1626      0.00000
    230       5.1626      0.00000
    231       5.4144      0.00000
    232       5.4424      0.00000
    233       5.6806      0.00000
    234       5.9097      0.00000
    235       6.1927      0.00000
    236       6.6263      0.00000
    237       6.6265      0.00000
    238       6.7877      0.00000
    239       6.7881      0.00000
    240       6.8516      0.00000
    241       6.9876      0.00000
    242       6.9877      0.00000
    243       7.0280      0.00000
    244       7.0282      0.00000
    245       7.0497      0.00000
    246       7.3981      0.00000
    247       7.4858      0.00000
    248       7.4882      0.00000
    249       7.6087      0.00000
    250       7.6193      0.00000
    251       7.6754      0.00000
    252       7.7992      0.00000

 k-point     2 :       0.1250   -0.0000    0.0000
  band No.  band energies     occupation 
      1     -19.7919      2.00000
      2      -8.4488      2.00000
      3      -7.9551      2.00000
      4      -7.1033      2.00000
      5      -6.0499      2.00000
      6      -5.7396      2.00000
      7      -5.7181      2.00000
      8      -5.5043      2.00000
      9      -5.2045      2.00000
     10      -5.1891      2.00000
     11      -5.0624      2.00000
     12      -5.0001      2.00000
     13      -4.8730      2.00000
     14      -4.8060      2.00000
     15      -4.6983      2.00000
     16      -4.5829      2.00000
     17      -4.5479      2.00000
     18      -4.4694      2.00000
     19      -4.1241      2.00000
[...]
  0.000   0.000   0.000   0.000   0.000   0.000   0.000   0.000   0.000   0.000   0.000   0.000   0.000   0.000   0.000   0.000
  0.000   0.000   0.000   0.000   0.000   0.000   0.000   0.000   0.000   0.000   0.000   0.000   0.000   0.000   0.000   0.000
  0.000   0.000   0.000   0.000   0.000   0.000   0.000   0.000   0.000   0.000   1.000   0.000   0.000   0.000   0.000   0.000
  0.000   0.000   0.000   0.000   0.000   0.000   0.000   0.000   0.000   0.000   0.000   0.000   0.000   0.000   0.000   0.000
  0.000   0.000   0.000   0.000   0.000   0.000   0.000   0.000   0.000   0.000   0.000   0.000   0.000   0.000   0.000   0.000
  0.000   0.000   0.000   0.000   0.000   0.000   0.000   0.000   0.000   0.000   0.000   0.000   0.000   0.000   0.000   0.000
  0.000   0.000   0.000   0.000   0.000   0.000   0.000   0.000   0.000   0.000   0.000   0.000   0.000   0.000   0.000   0.000
  0.000   0.000   0.000   0.000   0.000   0.000   0.000   0.000   0.000   0.000   0.000   0.000   0.000   0.000   0.000   0.000
  0.000   0.000   0.000   0.000   0.000   0.000   0.000   0.000   0.000   0.000   0.000   0.000   0.000   0.000   0.000   0.000
  0.000   0.000   0.000   0.000   0.000   0.000   0.000   0.000   0.000   0.000   0.000   0.000   0.000   0.000   0.000   0.000


------------------------ aborting loop because EDIFF is reached ----------------------------------------





 total charge

# of ion       s       p       d       tot
------------------------------------------
    1        0.450   0.284   9.187   9.920
    2        0.448   0.285   9.185   9.919
    3        0.448   0.285   9.185   9.919
    4        0.448   0.285   9.185   9.919
    5        0.448   0.286   9.184   9.918
    6        0.448   0.285   9.185   9.919
    7        0.448   0.285   9.185   9.919
    8        0.448   0.285   9.185   9.919
    9        0.448   0.284   9.188   9.920
   10        0.442   0.371   9.178   9.991
   11        0.441   0.366   9.182   9.989
   12        0.442   0.371   9.178   9.991
   13        0.441   0.366   9.182   9.989
   14        0.441   0.366   9.182   9.989
   15        0.439   0.372   9.177   9.987
   16        0.442   0.371   9.178   9.991
   17        0.439   0.372   9.177   9.987
   18        0.439   0.372   9.177   9.987
   19        0.444   0.369   9.181   9.995
   20        0.457   0.385   9.163  10.005
   21        0.457   0.385   9.163  10.005
   22        0.435   0.375   9.178   9.988
   23        0.457   0.385   9.163  10.005
   24        0.435   0.375   9.178   9.988
   25        0.444   0.369   9.181   9.995
   26        0.444   0.369   9.181   9.995
   27        0.435   0.375   9.178   9.988
   28        0.448   0.294   9.180   9.923
   29        0.473   0.304   9.171   9.948
   30        0.473   0.304   9.171   9.948
   31        0.473   0.304   9.171   9.948
   32        0.473   0.304   9.171   9.948
   33        0.473   0.304   9.171   9.948
   34        0.473   0.304   9.171   9.948
   35        0.449   0.299   9.177   9.924
   36        0.559   0.754   2.547   3.859
   37        1.563   3.530   0.000   5.093
   38        0.610   0.124   0.000   0.734
--------------------------------------------------
tot         18.478  16.103 323.779 358.360
 
    CHARGE:  cpu time    0.2111: real time    0.2112
    FORLOC:  cpu time    0.0080: real time    0.0080
    FORNL :  cpu time    1.1876: real time    1.1877
    STRESS:  cpu time    3.5210: real time    3.5212
    FORCOR:  cpu time    0.0279: real time    0.0280
    FORHAR:  cpu time    0.0122: real time    0.0124
    OFIELD:  cpu time    0.0001: real time    0.0001

  FORCE on cell =-STRESS in cart. coord.  units (eV):
  Direction    XX          YY          ZZ          XY          YZ          ZX
  --------------------------------------------------------------------------------------
  Alpha Z   885.09634   885.09634   885.09634
  Ewald  169272.65810169272.65777************     0.00036     0.00014     0.00017
  Hartree182381.35393182381.35395************     0.00002     0.00007     0.00006
  E(xc)   -2295.43719 -2295.43677 -2299.67351    -0.00037    -0.00004    -0.00007
  Local  ************************364431.75415     0.01881    -0.00063    -0.00096
  n-local  -787.54250  -774.58971  -792.84517     6.70685    -0.16848     0.25279
  augment  3320.40634  3320.42660  3339.83135    -0.01755     0.00022     0.00040
  Kinetic  3302.70564  3303.49482  3298.95928     1.41943     1.97042    -1.32336
  Fock        0.00000     0.00000     0.00000     0.00000     0.00000     0.00000
  -------------------------------------------------------------------------------------
  Total      -5.54866    -5.54866    -0.23521     0.00000     0.00000    -0.00000
  in kB      -8.14119    -8.14119    -0.34510     0.00000     0.00000    -0.00000
  external pressure =       -5.54 kB  Pullay stress =        0.00 kB


 VOLUME and BASIS-vectors are now :
 -----------------------------------------------------------------------------
  energy-cutoff  :      500.00
  volume of cell :     1091.97
      direct lattice vectors                 reciprocal lattice vectors
     7.696786404  0.000000000  0.000000000     0.129924354 -0.075011849  0.000000000
     3.848392758  6.665612809  0.000000000     0.000000000  0.150023716  0.000000000
     0.000000000  0.000000000 21.284399033     0.000000000  0.000000000  0.046982769

  length of vectors
     7.696786404  7.696786404 21.284399033     0.150023716  0.150023716  0.046982769


 FORCES acting on ions
    electron-ion (+dipol)            ewald-force                    non-local-force                 convergence-correction
 -----------------------------------------------------------------------------------------------
   -.416E-04 0.154E-06 0.346E+04   0.581E-04 -.428E-05 -.346E+04   -.141E-16 -.450E-17 -.220E+01   -.261E-03 -.127E-03 -.264E+00
   -.953E+00 -.105E+01 0.346E+04   0.918E+00 0.105E+01 -.345E+04   0.266E-01 0.550E-01 -.189E+01   0.768E-02 -.451E-01 -.233E+00
   0.953E+00 -.105E+01 0.346E+04   -.918E+00 0.105E+01 -.345E+04   -.266E-01 0.550E-01 -.189E+01   -.691E-02 -.426E-01 -.232E+00
   -.138E+01 -.301E+00 0.346E+04   0.137E+01 0.271E+00 -.345E+04   0.610E-01 -.447E-02 -.189E+01   -.352E-01 0.291E-01 -.233E+00
   -.656E-04 -.555E-05 0.345E+04   0.116E-03 -.101E-04 -.345E+04   -.686E-17 -.393E-17 -.185E+01   0.122E-01 0.740E-02 -.238E+00
   0.138E+01 -.301E+00 0.346E+04   -.137E+01 0.271E+00 -.345E+04   -.610E-01 -.447E-02 -.189E+01   0.336E-01 0.304E-01 -.231E+00
   -.431E+00 0.135E+01 0.346E+04   0.448E+00 -.132E+01 -.345E+04   0.343E-01 -.506E-01 -.189E+01   -.403E-01 0.153E-01 -.232E+00
   0.431E+00 0.135E+01 0.346E+04   -.448E+00 -.132E+01 -.345E+04   -.343E-01 -.506E-01 -.189E+01   0.438E-01 0.139E-01 -.231E+00
   -.144E-03 -.329E-04 0.346E+04   0.263E-03 0.204E-04 -.345E+04   -.219E-17 -.127E-17 -.207E+01   -.133E-01 -.680E-02 -.247E+00
   -.926E+01 -.534E+01 0.115E+04   0.956E+01 0.552E+01 -.114E+04   -.289E+00 -.167E+00 -.845E+00   0.489E-02 0.264E-02 -.378E+00
   -.906E-04 -.988E+01 0.113E+04   0.189E-03 0.963E+01 -.113E+04   -.166E-07 0.249E+00 -.514E+00   0.116E-01 -.155E-01 -.390E+00
   0.926E+01 -.534E+01 0.115E+04   -.956E+01 0.552E+01 -.114E+04   0.289E+00 -.167E+00 -.845E+00   -.622E-02 0.404E-02 -.379E+00
   -.856E+01 0.494E+01 0.113E+04   0.834E+01 -.481E+01 -.113E+04   0.216E+00 -.125E+00 -.514E+00   -.716E-02 0.182E-01 -.391E+00
   0.856E+01 0.494E+01 0.113E+04   -.834E+01 -.481E+01 -.113E+04   -.216E+00 -.125E+00 -.514E+00   0.308E-01 0.177E-01 -.391E+00
   -.140E-03 -.976E+00 0.115E+04   0.296E-03 0.949E+00 -.115E+04   -.379E-08 0.569E-01 -.845E+00   -.351E-02 -.210E-01 -.381E+00
   -.925E-04 0.107E+02 0.115E+04   0.187E-03 -.110E+02 -.114E+04   -.222E-07 0.334E+00 -.845E+00   -.628E-04 -.847E-02 -.380E+00
   -.845E+00 0.488E+00 0.115E+04   0.822E+00 -.474E+00 -.115E+04   0.493E-01 -.285E-01 -.845E+00   -.193E-01 0.758E-02 -.381E+00
   0.846E+00 0.488E+00 0.115E+04   -.822E+00 -.474E+00 -.115E+04   -.493E-01 -.285E-01 -.845E+00   0.199E-01 0.102E-01 -.381E+00
   -.697E-04 -.913E+01 -.115E+04   0.730E-04 0.901E+01 0.115E+04   -.429E-08 0.645E-01 0.113E+01   0.921E-03 0.412E-01 -.480E+00
   -.649E+02 -.375E+02 -.126E+04   0.658E+02 0.380E+02 0.126E+04   -.919E+00 -.531E+00 -.168E+00   -.897E-01 -.529E-01 -.595E+00
   0.649E+02 -.375E+02 -.126E+04   -.658E+02 0.380E+02 0.126E+04   0.919E+00 -.531E+00 -.168E+00   0.690E-01 -.516E-01 -.595E+00
   -.294E+02 0.170E+02 -.117E+04   0.293E+02 -.169E+02 0.117E+04   0.245E+00 -.141E+00 0.824E+00   -.685E-01 0.378E-01 -.394E+00
   -.724E-04 0.750E+02 -.126E+04   0.155E-03 -.760E+02 0.126E+04   -.707E-07 0.106E+01 -.168E+00   0.118E-01 0.848E-01 -.596E+00
   0.294E+02 0.170E+02 -.117E+04   -.293E+02 -.169E+02 0.117E+04   -.245E+00 -.141E+00 0.824E+00   0.666E-01 0.385E-01 -.395E+00
   0.791E+01 0.457E+01 -.115E+04   -.780E+01 -.450E+01 0.115E+04   -.558E-01 -.322E-01 0.113E+01   -.355E-01 -.195E-01 -.481E+00
   -.791E+01 0.457E+01 -.115E+04   0.780E+01 -.450E+01 0.115E+04   0.558E-01 -.322E-01 0.113E+01   0.367E-01 -.203E-01 -.480E+00
   -.133E-03 -.340E+02 -.117E+04   0.239E-03 0.338E+02 0.117E+04   -.188E-07 0.283E+00 0.824E+00   -.109E-02 -.768E-01 -.394E+00
   -.293E-04 0.217E-04 -.340E+04   0.446E-04 -.320E-04 0.340E+04   -.223E-18 0.163E-17 0.160E+01   0.302E-03 0.165E-03 0.165E+00
   -.416E+02 -.825E+02 -.338E+04   0.419E+02 0.827E+02 0.338E+04   -.286E+00 -.158E+00 0.194E+01   -.132E+00 -.186E+00 -.483E-01
   0.416E+02 -.825E+02 -.338E+04   -.419E+02 0.827E+02 0.338E+04   0.286E+00 -.158E+00 0.194E+01   0.133E+00 -.185E+00 -.479E-01
   -.922E+02 0.522E+01 -.338E+04   0.926E+02 -.503E+01 0.338E+04   -.280E+00 -.169E+00 0.194E+01   -.227E+00 -.220E-01 -.480E-01
   0.922E+02 0.522E+01 -.338E+04   -.926E+02 -.503E+01 0.338E+04   0.280E+00 -.169E+00 0.194E+01   0.227E+00 -.204E-01 -.473E-01
   -.506E+02 0.773E+02 -.338E+04   0.506E+02 -.777E+02 0.338E+04   0.612E-02 0.327E+00 0.194E+01   -.935E-01 0.208E+00 -.471E-01
   0.506E+02 0.773E+02 -.338E+04   -.506E+02 -.777E+02 0.338E+04   -.612E-02 0.327E+00 0.194E+01   0.968E-01 0.207E+00 -.478E-01
   -.124E-03 -.133E-04 -.342E+04   0.250E-03 0.848E-06 0.342E+04   -.171E-16 0.329E-18 0.174E+01   -.131E-01 -.652E-02 0.559E-01
   -.276E-04 -.646E-05 -.117E+04   0.467E-04 0.108E-04 0.117E+04   0.609E-18 -.121E-17 0.822E+00   0.490E-03 0.182E-03 -.143E-01
   0.188E-03 -.783E-04 -.198E+04   0.129E-04 0.660E-05 0.196E+04   0.126E-18 0.111E-18 0.223E+02   0.306E-02 0.184E-02 0.268E+00
   0.542E-05 -.129E-04 -.372E+03   0.486E-06 0.443E-06 0.381E+03   0.222E-19 0.306E-19 -.848E+01   0.168E-03 0.100E-03 0.340E-01
 -----------------------------------------------------------------------------------------------
   -.109E-03 -.112E-03 -.105E+01   0.164E-12 0.116E-12 0.233E-11   0.109E-15 -.112E-15 0.109E+02   0.169E-01 -.452E-02 -.978E+01
 
 
 POSITION                                       TOTAL-FORCE (eV/Angst)
 -----------------------------------------------------------------------------------
      0.00000      0.00000      5.37156         0.000000      0.000000     -0.002527
      2.56560      0.00000      5.37156        -0.000055      0.010654      0.051886
      5.13119      0.00000      5.37156         0.000055      0.010654      0.051886
      1.28280      2.22187      5.37156         0.009199     -0.005374      0.051886
      3.84839      2.22187      5.37156         0.000000      0.000000      0.052234
      6.41399      2.22187      5.37156        -0.009199     -0.005374      0.051886
      2.56560      4.44374      5.37156         0.009254     -0.005280      0.051886
      5.13119      4.44374      5.37156        -0.009254     -0.005280      0.051886
      7.69679      4.44374      5.37156        -0.000000      0.000000      0.021738
      1.28280      0.74062      7.46636         0.016299      0.009410     -0.096010
      3.84839      0.74062      7.46636         0.000000     -0.029827     -0.048195
      6.41399      0.74062      7.46636        -0.016299      0.009410     -0.096010
      2.56560      2.96249      7.46636        -0.025831      0.014914     -0.048195
      5.13119      2.96249      7.46636         0.025831      0.014914     -0.048195
      7.69679      2.96249      7.46636        -0.000000      0.008449     -0.014760
      3.84839      5.18437      7.46636         0.000000     -0.018820     -0.096010
      6.41399      5.18437      7.46636         0.007317     -0.004224     -0.014760
      8.97958      5.18437      7.46636        -0.007317     -0.004224     -0.014760
      7.69679      1.47704      9.53921         0.000000     -0.016885      0.023077
      2.57092      1.48432      9.56248        -0.092184     -0.053222     -0.141481
      5.12587      1.48432      9.56248         0.092184     -0.053222     -0.141481
      8.97870      3.70363      9.55579         0.037841     -0.021848      0.024399
      3.84839      3.69697      9.56248        -0.000000      0.106445     -0.141481
      6.41487      3.70363      9.55579        -0.037841     -0.021848      0.024399
     10.26602      5.92709      9.53921         0.014623      0.008443      0.023077
      5.12755      5.92709      9.53921        -0.014623      0.008443      0.023077
      7.69679      5.92397      9.55579        -0.000000      0.043696      0.024399
      0.00000      0.00000     11.63511         0.000000      0.000000     -0.038678
      6.40848      6.64966     11.64831        -0.075084     -0.135848     -0.156346
      8.98509      6.64966     11.64831         0.075084     -0.135848     -0.156346
      8.96302      2.22507     11.64831        -0.155190      0.002900     -0.156346
      6.43055      2.22507     11.64831         0.155190      0.002900     -0.156346
     10.25132      4.45649     11.64831        -0.080106      0.132948     -0.156346
      5.14225      4.45649     11.64831         0.080106      0.132948     -0.156346
      7.69679      4.44374     11.65790        -0.000000      0.000000     -0.030711
      3.84839      2.22187     11.77538         0.000000      0.000000      1.390887
      3.84839      2.22187     13.59007         0.000000      0.000000      0.000939
      3.84839      2.22187     14.55687         0.000000      0.000000     -0.008212
 -----------------------------------------------------------------------------------
    total drift:                                0.016758     -0.004634      0.086731


--------------------------------------------------------------------------------------------------------



  FREE ENERGIE OF THE ION-ELECTRON SYSTEM (eV)
  ---------------------------------------------------
  free  energy   TOTEN  =      -141.59914629 eV

  energy  without entropy=     -141.59914629  energy(sigma->0) =     -141.59914629
 


--------------------------------------------------------------------------------------------------------


    POTLOK:  cpu time    0.0285: real time    0.0285


--------------------------------------------------------------------------------------------------------


 stress matrix after NEB project (eV)
     -5.54866      0.00000     -0.00000
      0.00000     -5.54866      0.00000
     -0.00000      0.00000     -0.23521
  FORCES: max atom, RMS     0.008212    0.001341
  FORCE total and by dimension    0.008265    0.008212
  Stress total and by dimension    7.850514    5.548660
     LOOP+:  cpu time   61.2942: real time   61.3072
 -----------------------------------------------------------------------------
|                                                                             |
|           W    W    AA    RRRRR   N    N  II  N    N   GGGG   !!!           |
|           W    W   A  A   R    R  NN   N  II  NN   N  G    G  !!!           |
|           W    W  A    A  R    R  N N  N  II  N N  N  G       !!!           |
|           W WW W  AAAAAA  RRRRR   N  N N  II  N  N N  G  GGG   !            |
|           WW  WW  A    A  R   R   N   NN  II  N   NN  G    G                |
|           W    W  A    A  R    R  N    N  II  N    N   GGGG   !!!           |
|                                                                             |
|     Tetrahedron method does not include variations of the Fermi             |
|     occupations, so forces and stress will be inaccurate. We suggest        |
|     using a different smearing scheme ISMEAR = 1 or 2 for metals in         |
|     relaxations.                                                            |
|                                                                             |
 -----------------------------------------------------------------------------

    4ORBIT:  cpu time    0.0000: real time    0.0000



 total charge

# of ion       s       p       d       tot
------------------------------------------
    1        0.450   0.284   9.187   9.920
    2        0.448   0.285   9.185   9.919
    3        0.448   0.285   9.185   9.919
    4        0.448   0.285   9.185   9.919
    5        0.448   0.286   9.184   9.918
    6        0.448   0.285   9.185   9.919
    7        0.448   0.285   9.185   9.919
    8        0.448   0.285   9.185   9.919
    9        0.448   0.284   9.188   9.920
   10        0.442   0.371   9.178   9.991
   11        0.441   0.366   9.182   9.989
   12        0.442   0.371   9.178   9.991
   13        0.441   0.366   9.182   9.989
   14        0.441   0.366   9.182   9.989
   15        0.439   0.372   9.177   9.987
   16        0.442   0.371   9.178   9.991
   17        0.439   0.372   9.177   9.987
   18        0.439   0.372   9.177   9.987
   19        0.444   0.369   9.181   9.995
   20        0.457   0.385   9.163  10.005
   21        0.457   0.385   9.163  10.005
   22        0.435   0.375   9.178   9.988
   23        0.457   0.385   9.163  10.005
   24        0.435   0.375   9.178   9.988
   25        0.444   0.369   9.181   9.995
   26        0.444   0.369   9.181   9.995
   27        0.435   0.375   9.178   9.988
   28        0.448   0.294   9.180   9.923
   29        0.473   0.304   9.171   9.948
   30        0.473   0.304   9.171   9.948
   31        0.473   0.304   9.171   9.948
   32        0.473   0.304   9.171   9.948
   33        0.473   0.304   9.171   9.948
   34        0.473   0.304   9.171   9.948
   35        0.449   0.299   9.177   9.924
   36        0.559   0.754   2.547   3.859
   37        1.563   3.530   0.000   5.093
   38        0.610   0.124   0.000   0.734
--------------------------------------------------
tot         18.478  16.103 323.779 358.360
 
 BZINTS: Fermi energy:    0.342607;  396.000000 electrons
         Band energy:-0.105173E+04;  BLOECHL correction:   -0.054159

 total amount of memory used by VASP MPI-rank0   105228. kBytes
=======================================================================

   base      :      30000. kBytes
   nonlr-proj:      17839. kBytes
   fftplans  :       2916. kBytes
   grid      :      12878. kBytes
   one-center:        590. kBytes
   wavefun   :      41005. kBytes
 
  
  
 General timing and accounting informations for this job:
 ========================================================
  
                  Total CPU time used (sec):       67.242
                            User time (sec):       64.451
                          System time (sec):        2.791
                         Elapsed time (sec):       67.628
  
                   Maximum memory used (kb):      344304.
                   Average memory used (kb):          N/A
  
                          Minor page faults:        73113
                          Major page faults:            0
                 Voluntary context switches:         4695
