PROCAR new format
# of k-points:   10         # of bands:  252         # of ions:   38

 k-point     1 :    0.00000000 0.00000000 0.00000000     weight = 0.01562500

band     1 # energy  -19.79186280 # occ.  2.00000000
 
ion      s      p      d    tot
    1  0.000  0.000  0.000  0.000
    2  0.000  0.000  0.000  0.000
    3  0.000  0.000  0.000  0.000
    4  0.000  0.000  0.000  0.000
    5  0.000  0.000  0.000  0.000
    6  0.000  0.000  0.000  0.000
    7  0.000  0.000  0.000  0.000
    8  0.000  0.000  0.000  0.000
    9  0.000  0.000  0.000  0.000
   10  0.000  0.000  0.000  0.000
   11  0.000  0.000  0.000  0.000
   12  0.000  0.000  0.000  0.000
   13  0.000  0.000  0.000  0.000
   14  0.000  0.000  0.000  0.000
   15  0.000  0.000  0.000  0.000
   16  0.000  0.000  0.000  0.000
   17  0.000  0.000  0.000  0.000
   18  0.000  0.000  0.000  0.000
   19  0.000  0.000  0.000  0.000
   20  0.000  0.000  0.000  0.000
   21  0.000  0.000  0.000  0.000
   22  0.000  0.000  0.000  0.000
   23  0.000  0.000  0.000  0.000
   24  0.000  0.000  0.000  0.000
   25  0.000  0.000  0.000  0.000
   26  0.000  0.000  0.000  0.000
   27  0.000  0.000  0.000  0.000
   28  0.000  0.000  0.000  0.000
   29  0.000  0.000  0.000  0.000
   30  0.000  0.000  0.000  0.000
   31  0.000  0.000  0.000  0.000
   32  0.000  0.000  0.000  0.000
   33  0.000  0.000  0.000  0.000
   34  0.000  0.000  0.000  0.000
   35  0.000  0.000  0.000  0.000
   36  0.016  0.018  0.028  0.062
   37  0.741  0.019  0.000  0.760
   38  0.120  0.025  0.000  0.145
tot    0.877  0.062  0.028  0.967
 
band     2 # energy   -8.50192526 # occ.  2.00000000
 
ion      s      p      d    tot
    1  0.006  0.001  0.000  0.007
    2  0.006  0.001  0.000  0.007
    3  0.006  0.001  0.000  0.007
    4  0.006  0.001  0.000  0.007
    5  0.006  0.001  0.000  0.007
    6  0.006  0.001  0.000  0.007
    7  0.006  0.001  0.000  0.007
    8  0.006  0.001  0.000  0.007
    9  0.006  0.001  0.000  0.007
   10  0.023  0.000  0.000  0.023
   11  0.023  0.000  0.000  0.023
   12  0.023  0.000  0.000  0.023
   13  0.023  0.000  0.000  0.023
   14  0.023  0.000  0.000  0.023
   15  0.023  0.000  0.000  0.023
   16  0.023  0.000  0.000  0.023
   17  0.023  0.000  0.000  0.023
   18  0.023  0.000  0.000  0.023
   19  0.024  0.000  0.000  0.025
   20  0.025  0.000  0.000  0.025
   21  0.025  0.000  0.000  0.025
   22  0.024  0.000  0.000  0.024
   23  0.025  0.000  0.000  0.025
   24  0.024  0.000  0.000  0.024
   25  0.024  0.000  0.000  0.025
   26  0.024  0.000  0.000  0.025
   27  0.024  0.000  0.000  0.024
   28  0.007  0.001  0.000  0.008
   29  0.007  0.001  0.000  0.008
   30  0.007  0.001  0.000  0.008
   31  0.007  0.001  0.000  0.008
   32  0.007  0.001  0.000  0.008
   33  0.007  0.001  0.000  0.008
   34  0.007  0.001  0.000  0.008
   35  0.007  0.001  0.000  0.008
   36  0.018  0.000  0.004  0.022
   37  0.001  0.021  0.000  0.022
   38  0.007  0.001  0.000  0.008
tot    0.561  0.036  0.005  0.602
 
band     3 # energy   -7.95816908 # occ.  2.00000000
 
ion      s      p      d    tot
    1  0.001  0.000  0.000  0.001
    2  0.001  0.000  0.000  0.001
    3  0.001  0.000  0.000  0.001
    4  0.001  0.000  0.000  0.001
    5  0.001  0.000  0.000  0.001
    6  0.001  0.000  0.000  0.001
    7  0.001  0.000  0.000  0.001
    8  0.001  0.000  0.000  0.001
    9  0.001  0.000  0.000  0.001
   10  0.003  0.000  0.000  0.003
   11  0.002  0.000  0.000  0.002
   12  0.003  0.000  0.000  0.003
   13  0.002  0.000  0.000  0.002
   14  0.002  0.000  0.000  0.002
   15  0.003  0.000  0.000  0.003
   16  0.003  0.000  0.000  0.003
   17  0.003  0.000  0.000  0.003
   18  0.003  0.000  0.000  0.003
   19  0.001  0.000  0.000  0.001
   20  0.000  0.001  0.000  0.001
   21  0.000  0.001  0.000  0.001
   22  0.001  0.000  0.000  0.001
   23  0.000  0.001  0.000  0.001
   24  0.001  0.000  0.000  0.001
   25  0.001  0.000  0.000  0.001
   26  0.001  0.000  0.000  0.001
   27  0.001  0.000  0.000  0.001
   28  0.000  0.000  0.000  0.000
   29  0.000  0.000  0.000  0.000
   30  0.000  0.000  0.000  0.000
   31  0.000  0.000  0.000  0.000
   32  0.000  0.000  0.000  0.000
   33  0.000  0.000  0.000  0.000
   34  0.000  0.000  0.000  0.000
   35  0.000  0.000  0.000  0.000
   36  0.069  0.060  0.136  0.264
   37  0.033  0.501  0.000  0.533
   38  0.168  0.016  0.000  0.184
tot    0.308  0.581  0.138  1.027
 
band     4 # energy   -7.15380142 # occ.  2.00000000
 
ion      s      p      d    tot
    1  0.017  0.001  0.000  0.019
    2  0.017  0.001  0.001  0.019
    3  0.017  0.001  0.001  0.019
    4  0.017  0.001  0.001  0.019
    5  0.018  0.001  0.000  0.019
    6  0.017  0.001  0.001  0.019
    7  0.017  0.001  0.001  0.019
    8  0.017  0.001  0.001  0.019
    9  0.017  0.001  0.001  0.018
   10  0.009  0.002  0.001  0.012
   11  0.010  0.002  0.000  0.012
   12  0.009  0.002  0.001  0.012
   13  0.010  0.002  0.000  0.012
   14  0.010  0.002  0.000  0.012
   15  0.009  0.002  0.001  0.012
   16  0.009  0.002  0.001  0.012
   17  0.009  0.002  0.001  0.012
   18  0.009  0.002  0.001  0.012
   19  0.012  0.002  0.001  0.015
   20  0.008  0.002  0.001  0.011
   21  0.008  0.002  0.001  0.011
   22  0.011  0.002  0.001  0.014
   23  0.008  0.002  0.001  0.011
   24  0.011  0.002  0.001  0.014
   25  0.012  0.002  0.001  0.015
   26  0.012  0.002  0.001  0.015
   27  0.011  0.002  0.001  0.014
   28  0.020  0.001  0.001  0.022
   29  0.018  0.001  0.001  0.019
   30  0.018  0.001  0.001  0.019
   31  0.018  0.001  0.001  0.019
   32  0.018  0.001  0.001  0.019
   33  0.018  0.001  0.001  0.019
   34  0.018  0.001  0.001  0.019
   35  0.020  0.001  0.001  0.021
   36  0.006  0.008  0.012  0.026
   37  0.002  0.016  0.000  0.018
   38  0.005  0.000  0.000  0.006
tot    0.494  0.077  0.031  0.602
 
band     5 # energy   -5.57866120 # occ.  2.00000000
 
ion      s      p      d    tot
    1  0.016  0.000  0.005  0.022
    2  0.015  0.000  0.006  0.020
    3  0.015  0.000  0.006  0.020
    4  0.015  0.000  0.006  0.020
    5  0.006  0.000  0.007  0.013
    6  0.015  0.000  0.006  0.020
    7  0.015  0.000  0.006  0.020
    8  0.015  0.000  0.006  0.020
    9  0.024  0.000  0.004  0.028
   10  0.003  0.003  0.003  0.009
   11  0.011  0.005  0.001  0.018
   12  0.003  0.003  0.003  0.009
   13  0.012  0.005  0.001  0.018
   14  0.011  0.005  0.001  0.018
   15  0.000  0.003  0.004  0.006
   16  0.003  0.003  0.003  0.009
   17  0.000  0.003  0.004  0.006
   18  0.000  0.003  0.004  0.006
   19  0.001  0.003  0.005  0.009
   20  0.018  0.004  0.002  0.024
   21  0.018  0.004  0.002  0.024
   22  0.001  0.004  0.004  0.008
   23  0.018  0.004  0.002  0.024
   24  0.001  0.004  0.004  0.008
   25  0.001  0.003  0.005  0.009
   26  0.001  0.003  0.005  0.009
   27  0.001  0.004  0.004  0.008
   28  0.022  0.000  0.006  0.027
   29  0.016  0.000  0.008  0.024
   30  0.016  0.000  0.008  0.024
   31  0.016  0.000  0.008  0.024
   32  0.016  0.000  0.008  0.024
   33  0.016  0.000  0.008  0.024
   34  0.016  0.000  0.008  0.024
   35  0.027  0.000  0.006  0.033
   36  0.004  0.001  0.011  0.016
   37  0.000  0.000  0.000  0.000
   38  0.000  0.000  0.000  0.000
tot    0.385  0.070  0.174  0.630
 
band     6 # energy   -5.50539051 # occ.  2.00000000
 
ion      s      p      d    tot
    1  0.000  0.003  0.005  0.008
    2  0.006  0.002  0.002  0.010
    3  0.005  0.001  0.002  0.008
    4  0.009  0.002  0.002  0.013
    5  0.000  0.001  0.002  0.003
    6  0.000  0.001  0.002  0.003
    7  0.007  0.002  0.002  0.012
    8  0.001  0.001  0.002  0.003
    9  0.000  0.001  0.004  0.005
   10  0.052  0.002  0.006  0.060
   11  0.001  0.007  0.004  0.012
   12  0.006  0.007  0.009  0.022
   13  0.000  0.010  0.003  0.013
   14  0.002  0.001  0.005  0.008
   15  0.013  0.002  0.010  0.025
   16  0.022  0.006  0.008  0.035
   17  0.004  0.001  0.013  0.018
   18  0.032  0.004  0.003  0.039
   19  0.024  0.006  0.008  0.038
   20  0.036  0.005  0.003  0.043
   21  0.004  0.001  0.016  0.021
   22  0.000  0.011  0.003  0.014
   23  0.015  0.002  0.012  0.029
   24  0.003  0.001  0.006  0.009
   25  0.057  0.002  0.006  0.066
   26  0.007  0.008  0.009  0.024
   27  0.001  0.008  0.004  0.012
   28  0.000  0.004  0.006  0.010
   29  0.006  0.002  0.003  0.011
   30  0.009  0.002  0.003  0.014
   31  0.010  0.002  0.003  0.015
   32  0.001  0.001  0.003  0.005
   33  0.012  0.003  0.003  0.018
   34  0.000  0.001  0.003  0.004
   35  0.000  0.001  0.003  0.004
   36  0.000  0.002  0.006  0.007
   37  0.000  0.000  0.000  0.000
   38  0.000  0.000  0.000  0.000
tot    0.346  0.115  0.180  0.641
 
band     7 # energy   -5.50531346 # occ.  2.00000000
 
ion      s      p      d    tot
    1  0.000  0.003  0.005  0.008
    2  0.003  0.001  0.002  0.006
    3  0.005  0.002  0.002  0.008
    4  0.001  0.001  0.002  0.003
    5  0.000  0.001  0.002  0.003
    6  0.009  0.002  0.002  0.014
    7  0.002  0.001  0.002  0.005
    8  0.009  0.002  0.002  0.013
    9  0.000  0.001  0.004  0.005
   10  0.002  0.008  0.009  0.018
   11  0.001  0.005  0.004  0.010
   12  0.047  0.003  0.006  0.056
   13  0.002  0.002  0.005  0.009
   14  0.000  0.011  0.003  0.014
   15  0.019  0.003  0.007  0.030
   16  0.032  0.005  0.007  0.043
   17  0.029  0.004  0.004  0.036
   18  0.001  0.000  0.014  0.016
   19  0.035  0.005  0.007  0.047
   20  0.001  0.001  0.017  0.019
   21  0.032  0.004  0.004  0.041
   22  0.002  0.002  0.005  0.010
   23  0.022  0.003  0.009  0.033
   24  0.000  0.012  0.002  0.014
   25  0.002  0.008  0.009  0.019
   26  0.052  0.003  0.006  0.061
   27  0.002  0.005  0.004  0.011
   28  0.000  0.004  0.006  0.010
   29  0.007  0.002  0.003  0.012
   30  0.004  0.002  0.003  0.008
   31  0.003  0.001  0.003  0.007
   32  0.012  0.003  0.003  0.017
   33  0.001  0.001  0.003  0.005
   34  0.012  0.003  0.003  0.018
   35  0.000  0.001  0.003  0.004
   36  0.000  0.002  0.006  0.007
   37  0.000  0.000  0.000  0.000
   38  0.000  0.000  0.000  0.000
tot    0.346  0.115  0.180  0.641
 
band     8 # energy   -5.49557479 # occ.  2.00000000
 
ion      s      p      d    tot
    1  0.019  0.003  0.001  0.023
    2  0.000  0.002  0.004  0.005
    3  0.000  0.002  0.004  0.005
    4  0.000  0.002  0.004  0.005
    5  0.002  0.000  0.000  0.003
    6  0.000  0.002  0.004  0.005
    7  0.000  0.002  0.004  0.005
    8  0.000  0.002  0.004  0.005
    9  0.008  0.001  0.000  0.010
   10  0.030  0.006  0.005  0.041
   11  0.006  0.000  0.011  0.017
   12  0.030  0.006  0.005  0.042
   13  0.006  0.000  0.011  0.017
   14  0.006  0.000  0.011  0.017
   15  0.010  0.007  0.004  0.021
   16  0.030  0.006  0.005  0.042
   17  0.010  0.007  0.004  0.021
   18  0.010  0.007  0.004  0.021
   19  0.025  0.009  0.002  0.036
   20  0.000  0.003  0.011  0.013
   21  0.000  0.003  0.010  0.013
   22  0.024  0.002  0.009  0.035
   23  0.000  0.003  0.010  0.013
   24  0.023  0.002  0.009  0.035
   25  0.024  0.010  0.002  0.036
   26  0.025  0.009  0.002  0.036
   27  0.024  0.002  0.009  0.035
   28  0.019  0.003  0.001  0.023
   29  0.000  0.002  0.005  0.007
   30  0.000  0.002  0.005  0.007
   31  0.000  0.002  0.005  0.007
   32  0.000  0.002  0.005  0.007
   33  0.000  0.002  0.005  0.007
   34  0.000  0.002  0.005  0.007
   35  0.014  0.002  0.001  0.017
   36  0.000  0.000  0.000  0.000
   37  0.000  0.000  0.000  0.000
   38  0.000  0.000  0.000  0.000
tot    0.345  0.115  0.181  0.641
 
band     9 # energy   -5.48450460 # occ.  2.00000000
 
ion      s      p      d    tot
    1  0.000  0.000  0.003  0.003
    2  0.006  0.002  0.002  0.010
    3  0.004  0.001  0.002  0.008
    4  0.009  0.002  0.002  0.014
    5  0.000  0.003  0.005  0.008
    6  0.000  0.001  0.002  0.003
    7  0.008  0.002  0.002  0.012
    8  0.001  0.001  0.002  0.004
    9  0.000  0.002  0.003  0.006
   10  0.000  0.005  0.009  0.014
   11  0.032  0.003  0.009  0.044
   12  0.006  0.003  0.004  0.012
   13  0.052  0.004  0.004  0.061
   14  0.003  0.002  0.015  0.019
   15  0.014  0.006  0.005  0.025
   16  0.003  0.004  0.006  0.013
   17  0.024  0.002  0.006  0.031
   18  0.001  0.012  0.003  0.016
   19  0.004  0.004  0.006  0.014
   20  0.001  0.013  0.003  0.017
   21  0.026  0.002  0.007  0.035
   22  0.056  0.004  0.004  0.065
   23  0.016  0.006  0.005  0.027
   24  0.003  0.002  0.016  0.020
   25  0.000  0.006  0.009  0.015
   26  0.006  0.003  0.004  0.013
   27  0.034  0.003  0.009  0.047
   28  0.000  0.000  0.003  0.003
   29  0.006  0.002  0.003  0.010
   30  0.007  0.002  0.003  0.012
   31  0.010  0.002  0.003  0.015
   32  0.001  0.001  0.003  0.005
   33  0.011  0.003  0.003  0.017
   34  0.000  0.001  0.003  0.004
   35  0.000  0.003  0.006  0.009
   36  0.000  0.005  0.004  0.009
   37  0.000  0.000  0.000  0.000
   38  0.000  0.000  0.000  0.000
tot    0.345  0.117  0.179  0.641
 
band    10 # energy   -5.48439771 # occ.  2.00000000
 
ion      s      p      d    tot
    1  0.000  0.000  0.003  0.003
    2  0.004  0.001  0.002  0.007
    3  0.005  0.002  0.002  0.009
    4  0.001  0.001  0.002  0.003
    5  0.000  0.003  0.005  0.008
    6  0.009  0.002  0.002  0.014
    7  0.001  0.001  0.002  0.004
    8  0.009  0.002  0.002  0.013
    9  0.000  0.002  0.003  0.006
   10  0.006  0.003  0.003  0.012
   11  0.026  0.003  0.010  0.039
   12  0.001  0.005  0.008  0.014
   13  0.005  0.002  0.014  0.021
   14  0.055  0.004  0.004  0.064
   15  0.012  0.007  0.004  0.023
   16  0.003  0.004  0.006  0.013
   17  0.003  0.012  0.003  0.017
   18  0.025  0.001  0.006  0.032
   19  0.003  0.004  0.007  0.014
   20  0.027  0.001  0.007  0.036
   21  0.003  0.013  0.003  0.018
   22  0.006  0.002  0.015  0.023
   23  0.013  0.008  0.005  0.026
   24  0.060  0.004  0.004  0.068
   25  0.006  0.003  0.004  0.013
   26  0.001  0.005  0.009  0.015
   27  0.028  0.003  0.010  0.041
   28  0.000  0.000  0.003  0.004
   29  0.006  0.002  0.003  0.011
   30  0.005  0.002  0.003  0.009
   31  0.001  0.001  0.003  0.006
   32  0.011  0.003  0.003  0.016
   33  0.001  0.001  0.003  0.004
   34  0.011  0.003  0.003  0.017
   35  0.000  0.003  0.006  0.009
   36  0.000  0.005  0.004  0.009
   37  0.000  0.000  0.000  0.000
   38  0.000  0.000  0.000  0.000
tot    0.345  0.117  0.179  0.641
 
band    11 # energy   -5.39906322 # occ.  2.00000000
 
ion      s      p      d    tot
    1  0.000  0.000  0.001  0.001
    2  0.002  0.002  0.006  0.010
    3  0.002  0.002  0.006  0.010
    4  0.002  0.002  0.006  0.010
    5  0.037  0.003  0.000  0.040
    6  0.002  0.002  0.006  0.010
    7  0.002  0.002  0.006  0.010
    8  0.002  0.002  0.006  0.010
    9  0.004  0.002  0.004  0.011
   10  0.002  0.004  0.009  0.015
   11  0.019  0.009  0.004  0.032
   12  0.002  0.004  0.009  0.015
   13  0.019  0.009  0.004  0.032
   14  0.019  0.009  0.004  0.032
   15  0.029  0.002  0.010  0.042
   16  0.002  0.004  0.009  0.015
   17  0.029  0.002  0.010  0.042
   18  0.029  0.002  0.010  0.042
   19  0.007  0.001  0.009  0.018
   20  0.019  0.004  0.007  0.030
   21  0.019  0.004  0.007  0.030
   22  0.010  0.007  0.004  0.021
   23  0.019  0.004  0.007  0.030
   24  0.010  0.007  0.004  0.021
   25  0.007  0.001  0.010  0.018
   26  0.007  0.001  0.009  0.018
   27  0.010  0.007  0.004  0.021
   28  0.001  0.000  0.003  0.004
   29  0.003  0.001  0.004  0.007
   30  0.003  0.001  0.004  0.007
   31  0.003  0.001  0.004  0.007
   32  0.003  0.001  0.004  0.007
   33  0.003  0.001  0.004  0.007
   34  0.003  0.001  0.004  0.007
   35  0.000  0.001  0.002  0.003
   36  0.014  0.008  0.002  0.023
   37  0.001  0.002  0.000  0.003
   38  0.001  0.000  0.000  0.001
tot    0.343  0.115  0.197  0.655
 
band    12 # energy   -4.75011722 # occ.  2.00000000
 
ion      s      p      d    tot
    1  0.000  0.004  0.010  0.015
    2  0.001  0.002  0.005  0.009
    3  0.023  0.004  0.005  0.032
    4  0.005  0.002  0.006  0.013
    5  0.000  0.000  0.011  0.011
    6  0.007  0.002  0.005  0.015
    7  0.023  0.004  0.005  0.031
    8  0.003  0.002  0.005  0.010
    9  0.000  0.005  0.008  0.014
   10  0.014  0.001  0.006  0.021
   11  0.000  0.002  0.013  0.016
   12  0.001  0.004  0.019  0.024
   13  0.000  0.002  0.014  0.017
   14  0.004  0.001  0.007  0.012
   15  0.010  0.002  0.016  0.028
   16  0.003  0.003  0.016  0.021
   17  0.004  0.001  0.020  0.025
   18  0.023  0.005  0.006  0.033
   19  0.007  0.002  0.013  0.023
   20  0.002  0.001  0.010  0.013
   21  0.000  0.002  0.015  0.017
   22  0.001  0.002  0.025  0.029
   23  0.000  0.002  0.014  0.016
   24  0.009  0.002  0.005  0.017
   25  0.012  0.006  0.010  0.028
   26  0.003  0.001  0.016  0.020
   27  0.003  0.002  0.020  0.025
   28  0.000  0.005  0.008  0.013
   29  0.002  0.002  0.006  0.011
   30  0.026  0.004  0.007  0.037
   31  0.007  0.002  0.007  0.016
   32  0.008  0.002  0.007  0.017
   33  0.026  0.003  0.008  0.037
   34  0.003  0.002  0.007  0.012
   35  0.000  0.005  0.011  0.016
   36  0.000  0.000  0.012  0.012
   37  0.000  0.000  0.000  0.000
   38  0.000  0.000  0.000  0.000
tot    0.231  0.093  0.380  0.704
 
band    13 # energy   -4.75007600 # occ.  2.00000000
 
ion      s      p      d    tot
    1  0.000  0.004  0.010  0.015
    2  0.019  0.004  0.005  0.027
    3  0.000  0.002  0.005  0.007
    4  0.014  0.003  0.005  0.022
    5  0.000  0.000  0.011  0.011
    6  0.012  0.003  0.005  0.020
    7  0.001  0.002  0.005  0.007
    8  0.017  0.003  0.005  0.026
    9  0.000  0.005  0.008  0.013
   10  0.000  0.004  0.021  0.025
   11  0.002  0.002  0.011  0.014
   12  0.010  0.002  0.008  0.019
   13  0.002  0.001  0.009  0.013
   14  0.000  0.003  0.014  0.017
   15  0.016  0.003  0.012  0.031
   16  0.007  0.002  0.012  0.021
   17  0.021  0.004  0.008  0.034
   18  0.000  0.000  0.022  0.022
   19  0.010  0.004  0.012  0.025
   20  0.000  0.002  0.015  0.017
   21  0.001  0.001  0.011  0.013
   22  0.008  0.002  0.007  0.017
   23  0.001  0.001  0.012  0.014
   24  0.000  0.002  0.029  0.032
   25  0.000  0.000  0.017  0.017
   26  0.013  0.005  0.010  0.028
   27  0.006  0.002  0.013  0.021
   28  0.000  0.005  0.008  0.013
   29  0.021  0.003  0.007  0.032
   30  0.000  0.002  0.007  0.009
   31  0.016  0.003  0.007  0.026
   32  0.015  0.003  0.007  0.025
   33  0.000  0.002  0.007  0.009
   34  0.021  0.003  0.007  0.031
   35  0.000  0.005  0.011  0.016
   36  0.000  0.000  0.012  0.012
   37  0.000  0.000  0.000  0.000
   38  0.000  0.000  0.000  0.000
tot    0.232  0.094  0.377  0.703
 
band    14 # energy   -4.74993525 # occ.  2.00000000
 
ion      s      p      d    tot
    1  0.002  0.001  0.010  0.013
    2  0.006  0.001  0.009  0.015
    3  0.002  0.001  0.010  0.013
    4  0.006  0.001  0.009  0.016
    5  0.000  0.001  0.009  0.011
    6  0.007  0.001  0.009  0.017
    7  0.003  0.001  0.010  0.013
    8  0.006  0.001  0.009  0.016
    9  0.019  0.000  0.007  0.026
   10  0.007  0.000  0.024  0.031
   11  0.010  0.000  0.019  0.030
   12  0.011  0.000  0.024  0.034
   13  0.010  0.000  0.020  0.030
   14  0.008  0.000  0.022  0.030
   15  0.001  0.001  0.022  0.023
   16  0.011  0.000  0.023  0.035
   17  0.001  0.001  0.022  0.023
   18  0.004  0.001  0.022  0.026
   19  0.004  0.000  0.021  0.025
   20  0.009  0.000  0.025  0.035
   21  0.010  0.001  0.024  0.035
   22  0.002  0.000  0.021  0.024
   23  0.010  0.001  0.024  0.035
   24  0.001  0.000  0.020  0.021
   25  0.008  0.001  0.018  0.027
   26  0.005  0.000  0.020  0.025
   27  0.002  0.000  0.021  0.024
   28  0.001  0.001  0.007  0.008
   29  0.004  0.001  0.009  0.014
   30  0.001  0.001  0.009  0.011
   31  0.005  0.001  0.009  0.015
   32  0.005  0.001  0.009  0.014
   33  0.001  0.001  0.009  0.011
   34  0.004  0.001  0.008  0.014
   35  0.016  0.000  0.006  0.022
   36  0.001  0.002  0.006  0.009
   37  0.000  0.000  0.000  0.000
   38  0.000  0.000  0.000  0.000
tot    0.204  0.021  0.547  0.772
 
band    15 # energy   -4.73348993 # occ.  2.00000000
 
ion      s      p      d    tot
    1  0.037  0.003  0.000  0.040
    2  0.000  0.003  0.010  0.013
    3  0.000  0.003  0.010  0.013
    4  0.000  0.003  0.010  0.013
    5  0.000  0.000  0.001  0.002
    6  0.000  0.003  0.010  0.013
    7  0.000  0.003  0.010  0.013
    8  0.000  0.003  0.010  0.013
    9  0.022  0.004  0.002  0.028
   10  0.006  0.003  0.011  0.021
   11  0.003  0.000  0.016  0.018
   12  0.007  0.003  0.011  0.021
   13  0.003  0.000  0.016  0.018
   14  0.002  0.000  0.016  0.018
   15  0.009  0.003  0.015  0.028
   16  0.007  0.003  0.011  0.021
   17  0.009  0.003  0.015  0.028
   18  0.009  0.003  0.015  0.028
   19  0.003  0.003  0.021  0.026
   20  0.000  0.000  0.015  0.015
   21  0.000  0.000  0.015  0.015
   22  0.012  0.003  0.009  0.025
   23  0.000  0.000  0.015  0.015
   24  0.012  0.003  0.010  0.025
   25  0.003  0.003  0.021  0.026
   26  0.003  0.003  0.021  0.026
   27  0.012  0.003  0.009  0.025
   28  0.040  0.003  0.000  0.043
   29  0.000  0.003  0.012  0.016
   30  0.000  0.003  0.012  0.016
   31  0.000  0.003  0.012  0.016
   32  0.000  0.003  0.012  0.016
   33  0.000  0.003  0.012  0.016
   34  0.000  0.003  0.012  0.016
   35  0.023  0.003  0.002  0.028
   36  0.000  0.000  0.000  0.000
   37  0.000  0.000  0.000  0.000
   38  0.000  0.000  0.000  0.000
tot    0.224  0.087  0.399  0.709
 
band    16 # energy   -4.72897188 # occ.  2.00000000
 
ion      s      p      d    tot
    1  0.000  0.002  0.009  0.011
    2  0.001  0.002  0.005  0.008
    3  0.020  0.004  0.005  0.029
    4  0.008  0.002  0.005  0.016
    5  0.000  0.006  0.009  0.015
    6  0.011  0.003  0.005  0.019
    7  0.019  0.004  0.005  0.028
    8  0.003  0.002  0.005  0.010
    9  0.000  0.001  0.012  0.013
   10  0.001  0.001  0.017  0.018
   11  0.012  0.003  0.014  0.029
   12  0.013  0.004  0.009  0.025
   13  0.019  0.004  0.007  0.030
   14  0.001  0.002  0.024  0.027
   15  0.000  0.002  0.012  0.014
   16  0.008  0.002  0.012  0.022
   17  0.001  0.000  0.009  0.010
   18  0.000  0.004  0.017  0.021
   19  0.001  0.002  0.014  0.017
   20  0.001  0.001  0.030  0.032
   21  0.017  0.005  0.008  0.029
   22  0.008  0.004  0.011  0.022
   23  0.010  0.003  0.017  0.031
   24  0.000  0.001  0.013  0.014
   25  0.000  0.003  0.023  0.026
   26  0.001  0.000  0.009  0.010
   27  0.005  0.002  0.011  0.019
   28  0.000  0.002  0.014  0.016
   29  0.002  0.002  0.006  0.010
   30  0.021  0.004  0.007  0.031
   31  0.010  0.002  0.006  0.019
   32  0.010  0.003  0.006  0.019
   33  0.021  0.004  0.007  0.031
   34  0.002  0.002  0.006  0.010
   35  0.000  0.001  0.011  0.012
   36  0.000  0.011  0.006  0.017
   37  0.000  0.001  0.000  0.001
   38  0.000  0.000  0.000  0.000
tot    0.226  0.098  0.387  0.711
 
band    17 # energy   -4.72893231 # occ.  2.00000000
 
ion      s      p      d    tot
    1  0.000  0.002  0.009  0.011
    2  0.020  0.004  0.005  0.029
    3  0.000  0.002  0.005  0.007
    4  0.013  0.003  0.005  0.021
    5  0.000  0.006  0.009  0.015
    6  0.010  0.003  0.005  0.018
    7  0.002  0.002  0.005  0.008
    8  0.018  0.004  0.005  0.027
    9  0.000  0.001  0.012  0.013
   10  0.014  0.004  0.008  0.026
   11  0.010  0.003  0.016  0.028
   12  0.001  0.001  0.016  0.018
   13  0.002  0.002  0.023  0.027
   14  0.020  0.004  0.006  0.030
   15  0.000  0.002  0.013  0.016
   16  0.006  0.002  0.013  0.021
   17  0.000  0.004  0.016  0.020
   18  0.001  0.000  0.008  0.009
   19  0.001  0.002  0.016  0.018
   20  0.017  0.005  0.007  0.029
   21  0.002  0.001  0.029  0.032
   22  0.001  0.001  0.013  0.014
   23  0.008  0.003  0.020  0.031
   24  0.009  0.004  0.010  0.023
   25  0.001  0.000  0.008  0.010
   26  0.000  0.003  0.022  0.025
   27  0.004  0.002  0.012  0.018
   28  0.000  0.002  0.014  0.016
   29  0.020  0.004  0.007  0.030
   30  0.001  0.002  0.006  0.009
   31  0.012  0.003  0.007  0.021
   32  0.012  0.003  0.006  0.021
   33  0.001  0.002  0.006  0.009
   34  0.020  0.004  0.007  0.030
   35  0.000  0.001  0.011  0.012
   36  0.000  0.011  0.006  0.017
   37  0.000  0.001  0.000  0.001
   38  0.000  0.000  0.000  0.000
tot    0.226  0.098  0.387  0.711
 
band    18 # energy   -4.56302071 # occ.  2.00000000
 
ion      s      p      d    tot
    1  0.015  0.002  0.000  0.017
    2  0.000  0.003  0.011  0.014
    3  0.000  0.003  0.011  0.014
    4  0.000  0.003  0.011  0.014
    5  0.045  0.004  0.000  0.048
    6  0.000  0.003  0.011  0.014
    7  0.000  0.003  0.011  0.014
    8  0.000  0.003  0.011  0.014
    9  0.004  0.001  0.001  0.006
   10  0.001  0.001  0.027  0.029
   11  0.004  0.004  0.020  0.028
   12  0.001  0.001  0.027  0.029
   13  0.004  0.004  0.020  0.028
   14  0.004  0.004  0.020  0.028
   15  0.004  0.001  0.010  0.014
   16  0.001  0.001  0.027  0.029
   17  0.004  0.001  0.010  0.014
   18  0.004  0.001  0.010  0.014
   19  0.010  0.001  0.023  0.034
   20  0.011  0.004  0.007  0.022
   21  0.011  0.004  0.007  0.022
   22  0.002  0.001  0.018  0.022
   23  0.011  0.004  0.007  0.022
   24  0.002  0.001  0.018  0.022
   25  0.010  0.001  0.023  0.034
   26  0.010  0.001  0.023  0.034
   27  0.002  0.001  0.018  0.022
   28  0.002  0.002  0.006  0.009
   29  0.001  0.002  0.011  0.014
   30  0.001  0.002  0.011  0.014
   31  0.001  0.002  0.011  0.014
   32  0.001  0.002  0.011  0.014
   33  0.001  0.002  0.011  0.014
   34  0.001  0.002  0.011  0.014
   35  0.003  0.001  0.002  0.006
   36  0.027  0.014  0.002  0.043
   37  0.001  0.002  0.000  0.003
   38  0.001  0.000  0.000  0.001
tot    0.202  0.091  0.459  0.752
 
band    19 # energy   -4.09349592 # occ.  2.00000000
 
ion      s      p      d    tot
    1  0.000  0.002  0.004  0.007
    2  0.005  0.001  0.006  0.011
    3  0.010  0.001  0.006  0.018
    4  0.006  0.001  0.006  0.013
    5  0.000  0.000  0.022  0.023
    6  0.001  0.001  0.006  0.008
    7  0.011  0.001  0.006  0.018
    8  0.000  0.001  0.006  0.007
    9  0.000  0.001  0.009  0.009
   10  0.000  0.005  0.008  0.013
   11  0.000  0.000  0.029  0.029
   12  0.000  0.001  0.021  0.022
   13  0.000  0.000  0.034  0.034
   14  0.000  0.000  0.003  0.003
   15  0.000  0.001  0.007  0.008
   16  0.000  0.002  0.019  0.020
   17  0.000  0.001  0.006  0.006
   18  0.000  0.004  0.015  0.019
   19  0.001  0.001  0.021  0.023
   20  0.002  0.003  0.021  0.026
   21  0.000  0.001  0.020  0.021
   22  0.000  0.000  0.032  0.032
   23  0.001  0.001  0.020  0.022
   24  0.000  0.000  0.005  0.006
   25  0.002  0.003  0.009  0.014
   26  0.000  0.001  0.023  0.024
   27  0.000  0.000  0.027  0.027
   28  0.000  0.002  0.010  0.012
   29  0.016  0.001  0.015  0.032
   30  0.003  0.001  0.014  0.018
   31  0.016  0.001  0.015  0.032
   32  0.003  0.001  0.013  0.017
   33  0.005  0.001  0.015  0.021
   34  0.005  0.001  0.013  0.019
   35  0.000  0.000  0.040  0.040
   36  0.000  0.009  0.026  0.035
   37  0.000  0.092  0.000  0.092
   38  0.000  0.001  0.000  0.001
tot    0.090  0.140  0.552  0.782
 
band    20 # energy   -4.09342568 # occ.  2.00000000
 
ion      s      p      d    tot
    1  0.000  0.002  0.004  0.007
    2  0.007  0.001  0.006  0.014
    3  0.001  0.001  0.006  0.008
    4  0.005  0.001  0.006  0.012
    5  0.000  0.000  0.022  0.023
    6  0.010  0.001  0.006  0.017
    7  0.000  0.001  0.006  0.007
    8  0.011  0.001  0.006  0.018
    9  0.000  0.001  0.009  0.009
   10  0.000  0.000  0.024  0.024
   11  0.000  0.000  0.015  0.015
   12  0.000  0.004  0.011  0.015
   13  0.000  0.000  0.010  0.010
   14  0.000  0.000  0.041  0.041
   15  0.000  0.003  0.011  0.014
   16  0.000  0.003  0.013  0.016
   17  0.000  0.003  0.013  0.016
   18  0.000  0.000  0.004  0.004
   19  0.001  0.002  0.015  0.018
   20  0.000  0.000  0.020  0.020
   21  0.002  0.003  0.021  0.025
   22  0.000  0.000  0.011  0.011
   23  0.001  0.002  0.021  0.024
   24  0.000  0.000  0.037  0.037
   25  0.000  0.000  0.027  0.027
   26  0.002  0.002  0.012  0.016
   27  0.000  0.000  0.016  0.016
   28  0.000  0.002  0.010  0.012
   29  0.000  0.001  0.013  0.014
   30  0.013  0.001  0.014  0.028
   31  0.000  0.001  0.013  0.014
   32  0.013  0.001  0.015  0.029
   33  0.011  0.001  0.014  0.025
   34  0.011  0.001  0.015  0.027
   35  0.000  0.000  0.040  0.040
   36  0.000  0.009  0.026  0.035
   37  0.000  0.092  0.000  0.092
   38  0.000  0.001  0.000  0.001
tot    0.090  0.140  0.552  0.782
 
band    21 # energy   -4.06336925 # occ.  2.00000000
 
ion      s      p      d    tot
    1  0.000  0.000  0.029  0.029
    2  0.006  0.001  0.009  0.016
    3  0.013  0.001  0.009  0.023
    4  0.010  0.001  0.009  0.020
    5  0.000  0.002  0.002  0.004
    6  0.002  0.001  0.008  0.011
    7  0.015  0.001  0.009  0.025
    8  0.000  0.001  0.008  0.009
    9  0.000  0.002  0.019  0.021
   10  0.000  0.000  0.036  0.036
   11  0.000  0.005  0.014  0.019
   12  0.000  0.001  0.016  0.017
   13  0.000  0.006  0.017  0.024
   14  0.000  0.000  0.006  0.006
   15  0.000  0.002  0.023  0.025
   16  0.000  0.001  0.022  0.023