 vasp.6.2.0 18Jan21 (build Jun 12 2021 23:27:24) complex                        
  
 executed on             LinuxIFC date 2022.05.30  16:27:29
 running on   28 total cores
 distrk:  each k-point on   28 cores,    1 groups
 distr:  one band on NCORE=   1 cores,   28 groups


--------------------------------------------------------------------------------------------------------


 INCAR:
   ISMEAR = -5
   SIGMA = 0.1
   ISPIN = 1
   EDIFF = 1.d-5
   EDIFFG = -0.01
   NSW = 0
   NELM = 150
   ENCUT = 500
   ISIF = 2
   IBRION = 2
   LREAL = Auto
   ALGO = Fast
   ICHARG = 11
   LORBIT = 10
   LCHARG = .F.
   LWAVE = .F.

 POTCAR:    PAW_PBE Au 04Oct2007                  
 POTCAR:    PAW_PBE Hf 20Jan2003                  
 POTCAR:    PAW_PBE O 08Apr2002                   
 -----------------------------------------------------------------------------
|                                                                             |
|           W    W    AA    RRRRR   N    N  II  N    N   GGGG   !!!           |
|           W    W   A  A   R    R  NN   N  II  NN   N  G    G  !!!           |
|           W    W  A    A  R    R  N N  N  II  N N  N  G       !!!           |
|           W WW W  AAAAAA  RRRRR   N  N N  II  N  N N  G  GGG   !            |
|           WW  WW  A    A  R   R   N   NN  II  N   NN  G    G                |
|           W    W  A    A  R    R  N    N  II  N    N   GGGG   !!!           |
|                                                                             |
|     For optimal performance we recommend to set                             |
|       NCORE = 2 up to number-of-cores-per-socket                            |
|     NCORE specifies how many cores store one orbital (NPAR=cpu/NCORE).      |
|     This setting can greatly improve the performance of VASP for DFT.       |
|     The default, NCORE=1 might be grossly inefficient on modern             |
|     multi-core architectures or massively parallel machines. Do your        |
|     own testing! More info at https://www.vasp.at/wiki/index.php/NCORE      |
|     Unfortunately you need to use the default for GW and RPA                |
|     calculations (for HF NCORE is supported but not extensively tested      |
|     yet).                                                                   |
|                                                                             |
 -----------------------------------------------------------------------------

 POTCAR:    PAW_PBE Au 04Oct2007                  
   VRHFIN =Au: s1d10                                                                                
   LEXCH  = PE                                                                                      
   EATOM  =   926.0867 eV,   68.0654 Ry                                                             
                                                                                                    
   TITEL  = PAW_PBE Au 04Oct2007                                                                    
   LULTRA =        F    use ultrasoft PP ?                                                          
   IUNSCR =        1    unscreen: 0-lin 1-nonlin 2-no                                               
   RPACOR =    2.330    partial core radius                                                         
   POMASS =  196.966; ZVAL   =   11.000    mass and valenz                                          
   RCORE  =    2.500    outmost cutoff radius                                                       
   RWIGS  =    2.840; RWIGS  =    1.503    wigner-seitz radius (au A)                               
   ENMAX  =  229.943; ENMIN  =  172.457 eV                                                          
   ICORE  =        3    local potential                                                             
   LCOR   =        T    correct aug charges                                                         
   LPAW   =        T    paw PP                                                                      
   EAUG   =  356.670                                                                                
   DEXC   =    0.000                                                                                
   RMAX   =    2.562    core radius for proj-oper                                                   
   RAUG   =    1.300    factor for augmentation sphere                                              
   RDEP   =    2.598    radius for radial grids                                                     
   RDEPT  =    2.193    core radius for aug-charge                                                  
                                                                                                    
   Atomic configuration                                                                             
   16 entries                                                                                       
     n  l   j            E        occ.                                                              
     1  0  0.50    -80748.5001   2.0000                                                             
     2  0  0.50    -14244.7466   2.0000                                                             
     2  1  1.50    -12310.9591   6.0000                                                             
     3  0  0.50     -3362.1768   2.0000                                                             
     3  1  1.50     -2801.5463   6.0000                                                             
     3  2  2.50     -2203.8206  10.0000                                                             
     4  0  0.50      -729.8168   2.0000                                                             
     4  1  1.50      -546.0527   6.0000                                                             
     4  2  2.50      -325.7302  10.0000                                                             
     4  3  3.50       -81.1472  14.0000                                                             
     5  0  0.50      -108.3201   2.0000                                                             
     5  1  1.50       -59.7479   6.0000                                                             
     5  2  2.50        -6.8783  10.0000                                                             
     6  0  0.50        -5.7602   1.0000                                                             
     6  1  1.50        -6.8029   0.0000                                                             
     5  3  2.50        -1.3606   0.0000                                                             
   Description                                                                                      
     l       E           TYP  RCUT    TYP  RCUT                                                     
     2     -6.8782861     23  2.500                                                                 
     2     -8.2388687     23  2.500                                                                 
     0     -5.7601759     23  2.500                                                                 
     0     -0.8493231     23  2.500                                                                 
     1     -2.7211652     23  2.500                                                                 
     1     27.2116520     23  2.500                                                                 
     3     -1.3605826     23  2.500                                                                 
  local pseudopotential read in
  partial core-charges read in
  partial kinetic energy density read in
  atomic valenz-charges read in
  non local Contribution for L=           2  read in
    real space projection operators read in
  non local Contribution for L=           2  read in
    real space projection operators read in
  non local Contribution for L=           0  read in
    real space projection operators read in
  non local Contribution for L=           0  read in
    real space projection operators read in
  non local Contribution for L=           1  read in
    real space projection operators read in
  non local Contribution for L=           1  read in
    real space projection operators read in
    PAW grid and wavefunctions read in
 
   number of l-projection  operators is LMAX  =           6
   number of lm-projection operators is LMMAX =          18
 
 POTCAR:    PAW_PBE Hf 20Jan2003                  
   VRHFIN =Hf: 6s5d                                                                                 
   LEXCH  = PE                                                                                      
   EATOM  =    75.9011 eV,    5.5786 Ry                                                             
                                                                                                    
   TITEL  = PAW_PBE Hf 20Jan2003                                                                    
   LULTRA =        F    use ultrasoft PP ?                                                          
   IUNSCR =        1    unscreen: 0-lin 1-nonlin 2-no                                               
   RPACOR =    2.500    partial core radius                                                         
   POMASS =  178.490; ZVAL   =    4.000    mass and valenz                                          
   RCORE  =    3.000    outmost cutoff radius                                                       
   RWIGS  =    3.050; RWIGS  =    1.614    wigner-seitz radius (au A)                               
   ENMAX  =  220.334; ENMIN  =  165.250 eV                                                          
   RCLOC  =    2.212    cutoff for local pot                                                        
   LCOR   =        T    correct aug charges                                                         
   LPAW   =        T    paw PP                                                                      
   EAUG   =  335.116                                                                                
   DEXC   =    0.000                                                                                
   RMAX   =    3.077    core radius for proj-oper                                                   
   RAUG   =    1.300    factor for augmentation sphere                                              
   RDEP   =    3.047    radius for radial grids                                                     
   RDEPT  =    2.344    core radius for aug-charge                                                  
                                                                                                    
   Atomic configuration                                                                             
   16 entries                                                                                       
     n  l   j            E        occ.                                                              
     1  0  0.50    -65259.4397   2.0000                                                             
     2  0  0.50    -11157.9882   2.0000                                                             
     2  1  1.50     -9795.2113   6.0000                                                             
     3  0  0.50     -2541.4058   2.0000                                                             
     3  1  1.50     -2134.4770   6.0000                                                             
     3  2  2.50     -1653.5418  10.0000                                                             
     4  0  0.50      -510.9575   2.0000                                                             
     4  1  1.50      -377.5023   6.0000                                                             
     4  2  2.50      -205.2085  10.0000                                                             
     4  3  3.50       -15.4905  14.0000                                                             
     5  0  0.50       -65.6020   2.0000                                                             
     5  1  1.50       -34.2798   6.0000                                                             
     5  2  2.50        -1.9877   3.0000                                                             
     6  0  0.50        -4.7357   1.0000                                                             
     6  1  1.50        -1.3606   0.0000                                                             
     5  3  2.50        -1.3606   0.0000                                                             
   Description                                                                                      
     l       E           TYP  RCUT    TYP  RCUT                                                     
     2     -1.9876627     23  2.500                                                                 
     2      0.0744703     23  2.500                                                                 
     0     -4.7356889     23  2.600                                                                 
     0      3.2364747     23  2.600                                                                 
     1     -1.3605826     23  3.000                                                                 
     1     27.2116520     23  3.000                                                                 
  local pseudopotential read in
  partial core-charges read in
  partial kinetic energy density read in
  atomic valenz-charges read in
  non local Contribution for L=           2  read in
    real space projection operators read in
  non local Contribution for L=           2  read in
    real space projection operators read in
  non local Contribution for L=           0  read in
    real space projection operators read in
  non local Contribution for L=           0  read in
    real space projection operators read in
  non local Contribution for L=           1  read in
    real space projection operators read in
  non local Contribution for L=           1  read in
    real space projection operators read in
    PAW grid and wavefunctions read in
 
   number of l-projection  operators is LMAX  =           6
   number of lm-projection operators is LMMAX =          18
 
 POTCAR:    PAW_PBE O 08Apr2002                   
   VRHFIN =O: s2p4                                                                                  
   LEXCH  = PE                                                                                      
   EATOM  =   432.3788 eV,   31.7789 Ry                                                             
                                                                                                    
   TITEL  = PAW_PBE O 08Apr2002                                                                     
   LULTRA =        F    use ultrasoft PP ?                                                          
   IUNSCR =        1    unscreen: 0-lin 1-nonlin 2-no                                               
   RPACOR =    1.200    partial core radius                                                         
   POMASS =   16.000; ZVAL   =    6.000    mass and valenz                                          
   RCORE  =    1.520    outmost cutoff radius                                                       
   RWIGS  =    1.550; RWIGS  =    0.820    wigner-seitz radius (au A)                               
   ENMAX  =  400.000; ENMIN  =  300.000 eV                                                          
   ICORE  =        2    local potential                                                             
   LCOR   =        T    correct aug charges                                                         
   LPAW   =        T    paw PP                                                                      
   EAUG   =  605.392                                                                                
   DEXC   =    0.000                                                                                
   RMAX   =    1.553    core radius for proj-oper                                                   
   RAUG   =    1.300    factor for augmentation sphere                                              
   RDEP   =    1.550    radius for radial grids                                                     
   RDEPT  =    1.329    core radius for aug-charge                                                  
                                                                                                    
   Atomic configuration                                                                             
    4 entries                                                                                       
     n  l   j            E        occ.                                                              
     1  0  0.50      -514.6923   2.0000                                                             
     2  0  0.50       -23.9615   2.0000                                                             
     2  1  0.50        -9.0305   4.0000                                                             
     3  2  1.50        -9.5241   0.0000                                                             
   Description                                                                                      
     l       E           TYP  RCUT    TYP  RCUT                                                     
     0    -23.9615318     23  1.200                                                                 
     0     -9.5240782     23  1.200                                                                 
     1     -9.0304911     23  1.520                                                                 
     1      8.1634956     23  1.520                                                                 
     2     -9.5240782      7  1.500                                                                 
  local pseudopotential read in
  partial core-charges read in
  partial kinetic energy density read in
  kinetic energy density of atom read in
  atomic valenz-charges read in
  non local Contribution for L=           0  read in
    real space projection operators read in
  non local Contribution for L=           0  read in
    real space projection operators read in
  non local Contribution for L=           1  read in
    real space projection operators read in
  non local Contribution for L=           1  read in
    real space projection operators read in
    PAW grid and wavefunctions read in
 
   number of l-projection  operators is LMAX  =           4
   number of lm-projection operators is LMMAX =           8
 
 Optimization of the real space projectors (new method)

 maximal supplied QI-value         = 15.12
 optimisation between [QCUT,QGAM] = [ 11.34, 22.83] = [ 36.00,145.93] Ry 
 Optimized for a Real-space Cutoff    1.39 Angstroem

   l    n(q)    QCUT    max X(q) W(low)/X(q) W(high)/X(q)  e(spline) 
   2      9    11.338    60.898    0.39E-03    0.42E-03    0.21E-06
   2      9    11.338    58.894    0.40E-03    0.42E-03    0.22E-06
   0      9    11.338   109.617    0.13E-03    0.20E-04    0.13E-06
   0      9    11.338    75.026    0.13E-03    0.20E-04    0.13E-06
   1      9    11.338    16.344    0.33E-04    0.24E-03    0.18E-06
   1      9    11.338    10.160    0.26E-04    0.19E-03    0.15E-06
 Optimization of the real space projectors (new method)

 maximal supplied QI-value         = 12.47
 optimisation between [QCUT,QGAM] = [ 11.35, 22.82] = [ 36.07,145.88] Ry 
 Optimized for a Real-space Cutoff    1.66 Angstroem

   l    n(q)    QCUT    max X(q) W(low)/X(q) W(high)/X(q)  e(spline) 
   2     10    11.350    48.111    0.20E-03    0.11E-03    0.41E-06
   2     10    11.350    40.545    0.19E-03    0.10E-03    0.39E-06
   0     11    11.350   121.658    0.22E-04    0.19E-04    0.24E-06
   0     11    11.350    71.177    0.17E-04    0.17E-04    0.23E-06
   1     11    11.350    14.183    0.25E-03    0.43E-03    0.12E-05
   1     11    11.350     8.257    0.17E-03    0.29E-03    0.81E-06
 Optimization of the real space projectors (new method)

 maximal supplied QI-value         = 24.76
 optimisation between [QCUT,QGAM] = [ 11.39, 22.77] = [ 36.31,145.25] Ry 
 Optimized for a Real-space Cutoff    1.00 Angstroem

   l    n(q)    QCUT    max X(q) W(low)/X(q) W(high)/X(q)  e(spline) 
   0      7    11.387    20.381    0.39E-03    0.13E-02    0.15E-06
   0      7    11.387    15.268    0.42E-03    0.14E-02    0.17E-06
   1      6    11.387     5.964    0.41E-03    0.11E-02    0.17E-06
   1      6    11.387     5.382    0.39E-03    0.87E-03    0.15E-06
  PAW_PBE Au 04Oct2007                  :
 energy of atom  1       EATOM= -926.0867
 kinetic energy error for atom=    0.0042 (will be added to EATOM!!)
  PAW_PBE Hf 20Jan2003                  :
 energy of atom  2       EATOM=  -75.9011
 kinetic energy error for atom=    0.0007 (will be added to EATOM!!)
  PAW_PBE O 08Apr2002                   :
 energy of atom  3       EATOM= -432.3788
 kinetic energy error for atom=    0.0224 (will be added to EATOM!!)
 
 
 POSCAR: Au-Hf-O2
  positions in direct lattice
  velocities in cartesian coordinates
 exchange correlation table for  LEXCH =        8
   RHO(1)=    0.500       N(1)  =     2000
   RHO(2)=  100.500       N(2)  =     4000

 VTST: version 3.2, (02/03/18)

 CHAIN: initializing optimizer
 
 OPT: Using VASP Conjugate-Gradient optimizer
 CHAIN: Read ICHAIN            0
 
 POSCAR: Au-Hf-O2
  positions in direct lattice
  velocities in cartesian coordinates
 


--------------------------------------------------------------------------------------------------------


 ion  position               nearest neighbor table
   1  0.000  0.000  0.217-  16 2.94  12 2.94   6 2.94   8 2.94   7 2.94   3 2.94  10 2.94   4 2.94
                             2 2.94
   2  0.333  0.000  0.217-   9 2.94  11 2.94  17 2.94  10 2.94   8 2.94   4 2.94   5 2.94   1 2.94
                             3 2.94
   3  0.667  0.000  0.217-   7 2.94  18 2.94  12 2.94   1 2.94  11 2.94   5 2.94   6 2.94   9 2.94
                             2 2.94
   4  0.000  0.333  0.217-  10 2.94   6 2.94   5 2.94  13 2.94   2 2.94  15 2.94   9 2.94   1 2.94
                             7 2.94
   5  0.333  0.333  0.217-  13 2.94   7 2.94  11 2.94   4 2.94   2 2.94  14 2.94   3 2.94   8 2.94
                             6 2.94
   6  0.667  0.333  0.217-  15 2.94  14 2.94   1 2.94  12 2.94   4 2.94   9 2.94   8 2.94   3 2.94
                             5 2.94
   7  0.000  0.667  0.217-  18 2.94   3 2.94  16 2.94   5 2.94   1 2.94  13 2.94   8 2.94   4 2.94
                             9 2.94
   8  0.333  0.667  0.217-   9 2.94  17 2.94   1 2.94   2 2.94  14 2.94  16 2.94   6 2.94   7 2.94
                             5 2.94
   9  0.667  0.667  0.217-   2 2.94   8 2.94  17 2.94   6 2.94  15 2.94   4 2.94   3 2.94  18 2.94
                             7 2.94
  10  0.111  0.111  0.316-  20 2.93  26 2.94  19 2.94  11 2.94  17 2.94   2 2.94   4 2.94   1 2.94
                            12 2.94  16 2.94  13 2.94  15 2.94
  11  0.444  0.111  0.316-  20 2.92  21 2.92  13 2.94   2 2.94  10 2.94  17 2.94   5 2.94   3 2.94
                            18 2.94  14 2.94  12 2.94  27 2.94
  12  0.778  0.111  0.316-  21 2.93  25 2.94  19 2.94  16 2.94  18 2.94   1 2.94  14 2.94  15 2.94
                             3 2.94   6 2.94  10 2.94  11 2.94
  13  0.111  0.444  0.316-  23 2.92  20 2.92   5 2.94  18 2.94  11 2.94   7 2.94   4 2.94  16 2.94
                            10 2.94  14 2.94  15 2.94  22 2.94
  14  0.444  0.444  0.316-  21 2.92  23 2.92  15 2.94   6 2.94  12 2.94   8 2.94  17 2.94   5 2.94
                            16 2.94  13 2.94  11 2.94  24 2.94
  15  0.778  0.444  0.316-  24 2.93  22 2.93  19 2.94  14 2.94   6 2.94  17 2.94  12 2.94   9 2.94
                             4 2.94  10 2.94  13 2.94  18 2.94
  16  0.111  0.778  0.316-  23 2.93  25 2.94  26 2.94  18 2.94  12 2.94   7 2.94   1 2.94   8 2.94
                            13 2.94  10 2.94  14 2.94  17 2.94
  17  0.444  0.778  0.316-  27 2.93  24 2.93  26 2.94   9 2.94  15 2.94   2 2.94  10 2.94  11 2.94
                             8 2.94  14 2.94  16 2.94  18 2.94
  18  0.778  0.778  0.316-  22 2.93  27 2.93  25 2.94  16 2.94   7 2.94  13 2.94  12 2.94   3 2.94
                            11 2.94   9 2.94  15 2.94  17 2.94
  19  0.889  0.222  0.414-  15 2.94  10 2.94  12 2.94  24 2.94  22 2.94  26 2.94  25 2.94  21 2.94
                            20 2.94  28 2.96  32 3.04  31 3.04
  20  0.223  0.223  0.414-  36 2.81  11 2.92  13 2.92  23 2.93  21 2.93  10 2.93  26 2.94  19 2.94
                            27 2.95  22 2.95  29 2.99  31 2.99
  21  0.555  0.223  0.414-  36 2.81  14 2.92  11 2.92  20 2.93  23 2.93  12 2.93  25 2.94  19 2.94
                            27 2.95  24 2.95  30 2.99  32 2.99
  22  0.887  0.556  0.414-  24 2.92  27 2.92  18 2.93  15 2.93  25 2.94  19 2.94  13 2.94  23 2.95
                            20 2.95  35 2.96  33 3.01  31 3.01
  23  0.223  0.555  0.414-  36 2.81  13 2.92  14 2.92  20 2.93  21 2.93  16 2.93  25 2.94  26 2.94
                            22 2.95  24 2.95  33 2.99  34 2.99
  24  0.556  0.556  0.414-  27 2.92  22 2.92  15 2.93  17 2.93  26 2.94  19 2.94  14 2.94  21 2.95
                            23 2.95  35 2.96  32 3.01  34 3.01
  25  0.889  0.889  0.414-  18 2.94  16 2.94  12 2.94  22 2.94  27 2.94  19 2.94  26 2.94  23 2.94
                            21 2.94  28 2.96  33 3.04  30 3.04
  26  0.222  0.889  0.414-  17 2.94  10 2.94  16 2.94  27 2.94  24 2.94  19 2.94  25 2.94  20 2.94
                            23 2.94  28 2.96  29 3.04  34 3.04
  27  0.556  0.887  0.414-  24 2.92  22 2.92  17 2.93  18 2.93  26 2.94  25 2.94  11 2.94  20 2.95
                            21 2.95  35 2.96  29 3.01  30 3.01
  28  0.000  0.000  0.514-  25 2.96  19 2.96  26 2.96  34 2.98  32 2.98  33 2.98  30 2.98  31 2.98
                            29 2.98
  29  0.334  0.008  0.517-  30 2.86  31 2.87  36 2.88  35 2.97  28 2.98  20 2.99  27 3.01  26 3.04
                            34 3.08
  30  0.658  0.008  0.517-  29 2.86  32 2.87  36 2.88  35 2.97  28 2.98  21 2.99  27 3.01  25 3.04
                            33 3.08
  31  0.008  0.334  0.517-  37 2.70  33 2.86  29 2.87  36 2.88  35 2.97  28 2.98  20 2.99  22 3.01
                            19 3.04  32 3.08
  32  0.658  0.334  0.517-  38 2.70  34 2.86  30 2.87  36 2.88  35 2.97  28 2.98  21 2.99  24 3.01
                            19 3.04  31 3.08
  33  0.008  0.658  0.517-  31 2.86  34 2.87  36 2.88  35 2.97  28 2.98  23 2.99  22 3.01  25 3.04
                            30 3.08
  34  0.334  0.658  0.517-  32 2.86  33 2.87  36 2.88  35 2.97  28 2.98  23 2.99  24 3.01  26 3.04
                            29 3.08
  35  0.667  0.667  0.514-  24 2.96  27 2.96  22 2.96  29 2.97  34 2.97  32 2.97  31 2.97  30 2.97
                            33 2.97
  36  0.333  0.333  0.506-  37 2.03  38 2.03  20 2.81  23 2.81  21 2.81  33 2.88  31 2.88  29 2.88
                            30 2.88  34 2.88  32 2.88
  37  0.250  0.333  0.584-  38 1.46  36 2.03  31 2.70
  38  0.416  0.333  0.584-  37 1.46  36 2.03  32 2.70
 
  LATTYP: Found a hexagonal cell.
 ALAT       =     8.8135128021
 C/A-ratio  =     2.7586513333
  
  Lattice vectors:
  
 A1 = (  -4.4067569092,  -7.6327256898,   0.0000000000)
 A2 = (   8.8135128021,   0.0000000000,   0.0000000000)
 A3 = (   0.0000000000,   0.0000000000,  24.3134088421)


Analysis of symmetry for initial positions (statically):
=====================================================================
 Subroutine PRICEL returns:
 Original cell was already a primitive cell.
 

 Routine SETGRP: Setting up the symmetry group for a 
 hexagonal supercell.


 Subroutine GETGRP returns: Found  2 space group operations
 (whereof  2 operations were pure point group operations)
 out of a pool of 24 trial point group operations.


The static configuration has the point symmetry C_1h.


Analysis of symmetry for dynamics (positions and initial velocities):
=====================================================================
 Subroutine PRICEL returns:
 Original cell was already a primitive cell.
 

 Routine SETGRP: Setting up the symmetry group for a 
 hexagonal supercell.


 Subroutine GETGRP returns: Found  2 space group operations
 (whereof  2 operations were pure point group operations)
 out of a pool of 24 trial point group operations.


The dynamic configuration has the point symmetry C_1h.


Analysis of constrained symmetry for selective dynamics:
=====================================================================
 Subroutine PRICEL returns:
 Original cell was already a primitive cell.
 

 Routine SETGRP: Setting up the symmetry group for a 
 hexagonal supercell.


 Subroutine GETGRP returns: Found  2 space group operations
 (whereof  2 operations were pure point group operations)
 out of a pool of 24 trial point group operations.


The constrained configuration has the point symmetry C_1h.


 Subroutine INISYM returns: Found  2 space group operations
 (whereof  2 operations are pure point group operations),
 and found     1 'primitive' translations


----------------------------------------------------------------------------------------

                                     Primitive cell                                     

  volume of cell :    1635.5904

  direct lattice vectors                    reciprocal lattice vectors
     8.813512802  0.000000000  0.000000000     0.113462137 -0.065507406  0.000000000
     4.406756909  7.632725690  0.000000000     0.000000000  0.131014796  0.000000000
     0.000000000  0.000000000 24.313408842     0.000000000  0.000000000  0.041129568

  length of vectors
     8.813512802  8.813512802 24.313408842     0.131014796  0.131014796  0.041129568

  position of ions in fractional coordinates (direct lattice)
     0.000000000  0.000000000  0.217179745
     0.333333343  0.000000000  0.217179745
     0.666666687  0.000000000  0.217179745
     0.000000000  0.333333343  0.217179745
     0.333333313  0.333333343  0.217179745
     0.666666687  0.333333343  0.217179745
     0.000000000  0.666666687  0.217179745
     0.333333343  0.666666687  0.217179745
     0.666666627  0.666666687  0.217179745
     0.111111119  0.111111112  0.315838643
     0.444444418  0.111111112  0.315838643
     0.777777791  0.111111112  0.315838643
     0.111111127  0.444444448  0.315838643
     0.444444478  0.444444448  0.315838643
     0.777777731  0.444444448  0.315838643
     0.111111090  0.777777791  0.315838643
     0.444444448  0.777777791  0.315838643
     0.777777851  0.777777791  0.315838643
     0.888875580  0.222248856  0.414367500
     0.222641404  0.222641389  0.413815784
     0.554717252  0.222641389  0.413815784
     0.887340861  0.556329600  0.414169472
     0.222641359  0.554717252  0.413815784
     0.556329600  0.556329600  0.414169472
     0.888875580  0.888875580  0.414367500
     0.222248886  0.888875580  0.414367500
     0.556329540  0.887340861  0.414169472
     0.000000000  0.000000000  0.513984699
     0.333875472  0.007863498  0.516539857
     0.658261060  0.007863498  0.516539857
     0.007863498  0.333875472  0.516539857
     0.658261060  0.333875472  0.516539857
     0.007863498  0.658261060  0.516539857
     0.333875472  0.658261060  0.516539857
     0.666666627  0.666666687  0.514444996
     0.333333313  0.333333343  0.506368647
     0.250168781  0.333449935  0.584291936
     0.416381253  0.333449935  0.584291936

  ion indices of the primitive-cell ions
   primitive index   ion index
                 1           1
                 2           2
                 3           3
                 4           4
                 5           5
                 6           6
                 7           7
                 8           8
                 9           9
                10          10
                11          11
                12          12
                13          13
                14          14
                15          15
                16          16
                17          17
                18          18
                19          19
                20          20
                21          21
                22          22
                23          23
                24          24
                25          25
                26          26
                27          27
                28          28
                29          29
                30          30
                31          31
                32          32
                33          33
                34          34
                35          35
                36          36
                37          37
                38          38

----------------------------------------------------------------------------------------

 
 
 KPOINTS: Automatic mesh                          

Automatic generation of k-mesh.
 Grid dimensions read from file:
 generate k-points for:    8    8    1

 Generating k-lattice:

  Cartesian coordinates                     Fractional coordinates (reciprocal lattice)
     0.014182767 -0.008188426  0.000000000     0.125000000  0.000000000  0.000000000
     0.000000000  0.016376850  0.000000000     0.000000000  0.125000000  0.000000000
     0.000000000  0.000000000  0.041129568     0.000000000  0.000000000  1.000000000

  Length of vectors
     0.016376850  0.016376850  0.041129568

  Shift w.r.t. Gamma in fractional coordinates (k-lattice)
     0.000000000  0.000000000  0.000000000

 TETIRR: Found    100 inequivalent tetrahedra from      384
 
 Subroutine IBZKPT returns following result:
 ===========================================
 
 Found     21 irreducible k-points:
 
 Following reciprocal coordinates:
            Coordinates               Weight
  0.000000  0.000000  0.000000      1.000000
  0.125000  0.000000  0.000000      4.000000
  0.000000  0.125000  0.000000      2.000000
  0.250000  0.000000  0.000000      4.000000
  0.000000  0.250000  0.000000      2.000000
  0.375000 -0.000000  0.000000      4.000000
  0.000000  0.375000  0.000000      2.000000
  0.500000  0.000000  0.000000      2.000000
  0.000000  0.500000  0.000000      1.000000
  0.250000  0.125000  0.000000      2.000000
  0.125000  0.250000  0.000000      4.000000
  0.375000  0.125000  0.000000      4.000000
  0.250000  0.375000  0.000000      4.000000
 -0.125000  0.250000  0.000000      4.000000
  0.500000  0.125000  0.000000      4.000000
  0.375000  0.500000  0.000000      4.000000
 -0.125000  0.375000  0.000000      4.000000
  0.500000  0.250000  0.000000      2.000000
  0.250000  0.500000  0.000000      4.000000
 -0.375000  0.250000  0.000000      4.000000
 -0.250000  0.375000  0.000000      2.000000
 
 Following cartesian coordinates:
            Coordinates               Weight
  0.000000  0.000000  0.000000      1.000000
  0.014183 -0.008188  0.000000      4.000000
  0.000000  0.016377  0.000000      2.000000
  0.028366 -0.016377  0.000000      4.000000
  0.000000  0.032754  0.000000      2.000000
  0.042548 -0.024565  0.000000      4.000000
  0.000000  0.049131  0.000000      2.000000
  0.056731 -0.032754  0.000000      2.000000
  0.000000  0.065507  0.000000      1.000000
  0.028366 -0.000000  0.000000      2.000000
  0.014183  0.024565  0.000000      4.000000
  0.042548 -0.008188  0.000000      4.000000
  0.028366  0.032754  0.000000      4.000000
 -0.014183  0.040942  0.000000      4.000000
  0.056731 -0.016377  0.000000      4.000000
  0.042548  0.040942  0.000000      4.000000
 -0.014183  0.057319  0.000000      4.000000
  0.056731 -0.000000  0.000000      2.000000
  0.028366  0.049131  0.000000      4.000000
 -0.042548  0.057319  0.000000      4.000000
 -0.028366  0.065507  0.000000      2.000000
 


--------------------------------------------------------------------------------------------------------




 Dimension of arrays:
   k-points           NKPTS =     21   k-points in BZ     NKDIM =     21   number of bands    NBANDS=    252
   number of dos      NEDOS =    301   number of ions     NIONS =     38
   non local maximal  LDIM  =      6   non local SUM 2l+1 LMDIM =     18
   total plane-waves  NPLWV = 322560
   max r-space proj   IRMAX =   3824   max aug-charges    IRDMAX=  13440
   dimension x,y,z NGX =    48 NGY =   48 NGZ =  140
   dimension x,y,z NGXF=    96 NGYF=   96 NGZF=  280
   support grid    NGXF=    96 NGYF=   96 NGZF=  280
   ions per type =              35   1   2
   NGX,Y,Z   is equivalent  to a cutoff of   9.05,  9.05,  9.57 a.u.
   NGXF,Y,Z  is equivalent  to a cutoff of  18.11, 18.11, 19.15 a.u.

 SYSTEM =  unknown system                          
 POSCAR =  Au-Hf-O2                                

 Startparameter for this run:
   NWRITE =      2    write-flag & timer
   PREC   = normal    normal or accurate (medium, high low for compatibility)
   ISTART =      0    job   : 0-new  1-cont  2-samecut
   ICHARG =     11    charge: 1-file 2-atom 10-const
   ISPIN  =      1    spin polarized calculation?
   LNONCOLLINEAR =      F non collinear calculations
   LSORBIT =      F    spin-orbit coupling
   INIWAV =      1    electr: 0-lowe 1-rand  2-diag
   LASPH  =      F    aspherical Exc in radial PAW
   METAGGA=      F    non-selfconsistent MetaGGA calc.

 Electronic Relaxation 1
   ENCUT  =  500.0 eV  36.75 Ry    6.06 a.u.  16.07 16.07 44.33*2*pi/ulx,y,z
   ENINI  =  500.0     initial cutoff
   ENAUG  =  605.4 eV  augmentation charge cutoff
   NELM   =    150;   NELMIN=  2; NELMDL= -5     # of ELM steps 
   EDIFF  = 0.1E-04   stopping-criterion for ELM
   LREAL  =      T    real-space projection
   NLSPLINE    = F    spline interpolate recip. space projectors
   LCOMPAT=      F    compatible to vasp.4.4
   GGA_COMPAT  = T    GGA compatible to vasp.4.4-vasp.4.6
   LMAXPAW     = -100 max onsite density
   LMAXMIX     =    2 max onsite mixed and CHGCAR
   VOSKOWN=      0    Vosko Wilk Nusair interpolation
   ROPT   =   -0.00050  -0.00050  -0.00050
 Ionic relaxation
   EDIFFG = -.1E-01   stopping-criterion for IOM
   NSW    =      0    number of steps for IOM
   NBLOCK =      1;   KBLOCK =      1    inner block; outer block 
   IBRION =     -1    ionic relax: 0-MD 1-quasi-New 2-CG
   NFREE  =      1    steps in history (QN), initial steepest desc. (CG)
   ISIF   =      2    stress and relaxation
   IWAVPR =     10    prediction:  0-non 1-charg 2-wave 3-comb
   ISYM   =      2    0-nonsym 1-usesym 2-fastsym
   LCORR  =      T    Harris-Foulkes like correction to forces

   POTIM  = 0.5000    time-step for ionic-motion
   TEIN   =    0.0    initial temperature
   TEBEG  =    0.0;   TEEND  =   0.0 temperature during run
   SMASS  =  -3.00    Nose mass-parameter (am)
   estimated Nose-frequenzy (Omega)   =  0.10E-29 period in steps = 0.13E+47 mass=  -0.178E-26a.u.
   SCALEE = 1.0000    scale energy and forces
   NPACO  =    256;   APACO  = 16.0  distance and # of slots for P.C.
   PSTRESS=    0.0 pullay stress

  Mass of Ions in am
   POMASS = 196.97178.49 16.00
  Ionic Valenz
   ZVAL   =  11.00  4.00  6.00
  Atomic Wigner-Seitz radii
   RWIGS  =  -1.00 -1.00 -1.00
  virtual crystal weights 
   VCA    =   1.00  1.00  1.00
   NELECT =     401.0000    total number of electrons
   NUPDOWN=      -1.0000    fix difference up-down

 DOS related values:
   EMIN   =  10.00;   EMAX   =-10.00  energy-range for DOS
   EFERMI =   0.00
   ISMEAR =    -5;   SIGMA  =   0.10  broadening in eV -4-tet -1-fermi 0-gaus

 Electronic relaxation 2 (details)
   IALGO  =     68    algorithm
   LDIAG  =      T    sub-space diagonalisation (order eigenvalues)
   LSUBROT=      F    optimize rotation matrix (better conditioning)
   TURBO    =      0    0=normal 1=particle mesh
   IRESTART =      0    0=no restart 2=restart with 2 vectors
   NREBOOT  =      0    no. of reboots
   NMIN     =      0    reboot dimension
   EREF     =   0.00    reference energy to select bands
   IMIX   =      4    mixing-type and parameters
     AMIX     =   0.40;   BMIX     =  1.00
     AMIX_MAG =   1.60;   BMIX_MAG =  1.00
     AMIN     =   0.10
     WC   =   100.;   INIMIX=   1;  MIXPRE=   1;  MAXMIX= -45

 Intra band minimization:
   WEIMIN = 0.0000     energy-eigenvalue tresh-hold
   EBREAK =  0.99E-08  absolut break condition
   DEPER  =   0.30     relativ break condition  

   TIME   =   0.40     timestep for ELM

  volume/ion in A,a.u.               =      43.04       290.46
  Fermi-wavevector in a.u.,A,eV,Ry     =   1.024625  1.936260 14.284152  1.049856
  Thomas-Fermi vector in A             =   2.158422
 
 Write flags
   LWAVE        =      F    write WAVECAR
   LDOWNSAMPLE  =      F    k-point downsampling of WAVECAR
   LCHARG       =      F    write CHGCAR
   LVTOT        =      F    write LOCPOT, total local potential
   LVHAR        =      F    write LOCPOT, Hartree potential only
   LELF         =      F    write electronic localiz. function (ELF)
   LORBIT       =     10    0 simple, 1 ext, 2 COOP (PROOUT), +10 PAW based schemes


 Dipole corrections
   LMONO  =      F    monopole corrections only (constant potential shift)
   LDIPOL =      F    correct potential (dipole corrections)
   IDIPOL =      0    1-x, 2-y, 3-z, 4-all directions 
   EPSILON=  1.0000000 bulk dielectric constant

 Exchange correlation treatment:
   GGA     =    --    GGA type
   LEXCH   =     8    internal setting for exchange type
   VOSKOWN=      0    Vosko Wilk Nusair interpolation
   LHFCALC =     F    Hartree Fock is set to
   LHFONE  =     F    Hartree Fock one center treatment
   AEXX    =    0.0000 exact exchange contribution

 Linear response parameters
   LEPSILON=     F    determine dielectric tensor
   LRPA    =     F    only Hartree local field effects (RPA)
   LNABLA  =     F    use nabla operator in PAW spheres
   LVEL    =     F    velocity operator in full k-point grid
   LINTERFAST=   F  fast interpolation
   KINTER  =     0    interpolate to denser k-point grid
   CSHIFT  =0.1000    complex shift for real part using Kramers Kronig
   OMEGAMAX=  -1.0    maximum frequency
   DEG_THRESHOLD= 0.2000000E-02 threshold for treating states as degnerate
   RTIME   =   -0.100 relaxation time in fs
  (WPLASMAI=    0.000 imaginary part of plasma frequency in eV, 0.658/RTIME)
   DFIELD  = 0.0000000 0.0000000 0.0000000 field for delta impulse in time
 
 Orbital magnetization related:
   ORBITALMAG=     F  switch on orbital magnetization
   LCHIMAG   =     F  perturbation theory with respect to B field
   DQ        =  0.001000  dq finite difference perturbation B field
   LLRAUG    =     F  two centre corrections for induced B field



--------------------------------------------------------------------------------------------------------


 Static calculation
 charge density and potential remain constant during run
 non-spin polarized calculation
 RMM-DIIS sequential band-by-band and
  variant of blocked Davidson during initial phase
 perform sub-space diagonalisation
    before iterative eigenvector-optimisation
 no mixing
 using additional bands           51
 real space projection scheme for non local part
 use partial core corrections
 calculate Harris-corrections to forces 
   (improved forces if not selfconsistent)
 use gradient corrections 
 WARNING: stress and forces are not correct
  (second derivative of E(xc) not defined)
 use of overlap-Matrix (Vanderbilt PP)
 Fermi weights with tetrahedron method with Bloechl corrections


--------------------------------------------------------------------------------------------------------


  energy-cutoff  :      500.00
  volume of cell :     1635.59
      direct lattice vectors                 reciprocal lattice vectors
     8.813512802  0.000000000  0.000000000     0.113462137 -0.065507406  0.000000000
     4.406756909  7.632725690  0.000000000     0.000000000  0.131014796  0.000000000
     0.000000000  0.000000000 24.313408842     0.000000000  0.000000000  0.041129568

  length of vectors
     8.813512802  8.813512802 24.313408842     0.131014796  0.131014796  0.041129568


 
 k-points in units of 2pi/SCALE and weight: Automatic mesh                          
   0.00000000  0.00000000  0.00000000       0.016
   0.01418277 -0.00818843  0.00000000       0.062
   0.00000000  0.01637685  0.00000000       0.031
   0.02836553 -0.01637685  0.00000000       0.062
   0.00000000  0.03275370  0.00000000       0.031
   0.04254830 -0.02456528  0.00000000       0.062
   0.00000000  0.04913055  0.00000000       0.031
   0.05673107 -0.03275370  0.00000000       0.031
   0.00000000  0.06550740  0.00000000       0.016
   0.02836553 -0.00000000  0.00000000       0.031
   0.01418277  0.02456527  0.00000000       0.062
   0.04254830 -0.00818843  0.00000000       0.062
   0.02836553  0.03275370  0.00000000       0.062
  -0.01418277  0.04094212  0.00000000       0.062
   0.05673107 -0.01637685  0.00000000       0.062
   0.04254830  0.04094212  0.00000000       0.062
  -0.01418277  0.05731897  0.00000000       0.062
   0.05673107 -0.00000000  0.00000000       0.031
   0.02836553  0.04913055  0.00000000       0.062
  -0.04254830  0.05731898  0.00000000       0.062
  -0.02836553  0.06550740  0.00000000       0.031
 
 k-points in reciprocal lattice and weights: Automatic mesh                          
   0.00000000  0.00000000  0.00000000       0.016
   0.12500000  0.00000000  0.00000000       0.062
   0.00000000  0.12500000  0.00000000       0.031
   0.25000000  0.00000000  0.00000000       0.062
   0.00000000  0.25000000  0.00000000       0.031
   0.37500000 -0.00000000  0.00000000       0.062
   0.00000000  0.37500000  0.00000000       0.031
   0.50000000  0.00000000  0.00000000       0.031
   0.00000000  0.50000000  0.00000000       0.016
   0.25000000  0.12500000  0.00000000       0.031
   0.12500000  0.25000000  0.00000000       0.062
   0.37500000  0.12500000  0.00000000       0.062
   0.25000000  0.37500000  0.00000000       0.062
  -0.12500000  0.25000000  0.00000000       0.062
   0.50000000  0.12500000  0.00000000       0.062
   0.37500000  0.50000000  0.00000000       0.062
  -0.12500000  0.37500000  0.00000000       0.062
   0.50000000  0.25000000  0.00000000       0.031
   0.25000000  0.50000000  0.00000000       0.062
  -0.37500000  0.25000000  0.00000000       0.062
  -0.25000000  0.37500000  0.00000000       0.031
 
 position of ions in fractional coordinates (direct lattice) 
   0.00000000  0.00000000  0.21717974
   0.33333334  0.00000000  0.21717974
   0.66666669  0.00000000  0.21717974
   0.00000000  0.33333334  0.21717974
   0.33333331  0.33333334  0.21717974
   0.66666669  0.33333334  0.21717974
   0.00000000  0.66666669  0.21717974
   0.33333334  0.66666669  0.21717974
   0.66666663  0.66666669  0.21717974
   0.11111112  0.11111111  0.31583864
   0.44444442  0.11111111  0.31583864
   0.77777779  0.11111111  0.31583864
   0.11111113  0.44444445  0.31583864
   0.44444448  0.44444445  0.31583864
   0.77777773  0.44444445  0.31583864
   0.11111109  0.77777779  0.31583864
   0.44444445  0.77777779  0.31583864
   0.77777785  0.77777779  0.31583864
   0.88887558  0.22224886  0.41436750
   0.22264140  0.22264139  0.41381578
   0.55471725  0.22264139  0.41381578
   0.88734086  0.55632960  0.41416947
   0.22264136  0.55471725  0.41381578
   0.55632960  0.55632960  0.41416947
   0.88887558  0.88887558  0.41436750
   0.22224889  0.88887558  0.41436750
   0.55632954  0.88734086  0.41416947
   0.00000000  0.00000000  0.51398470
   0.33387547  0.00786350  0.51653986
   0.65826106  0.00786350  0.51653986
   0.00786350  0.33387547  0.51653986
   0.65826106  0.33387547  0.51653986
   0.00786350  0.65826106  0.51653986
   0.33387547  0.65826106  0.51653986
   0.66666663  0.66666669  0.51444500
   0.33333331  0.33333334  0.50636865
   0.25016878  0.33344993  0.58429194
   0.41638125  0.33344993  0.58429194
 
 position of ions in cartesian coordinates  (Angst):
   0.00000000  0.00000000  5.28037993
   2.93783769  0.00000000  5.28037993
   5.87567538  0.00000000  5.28037993
   1.46891901  2.54424197  5.28037993
   4.40675643  2.54424197  5.28037993
   7.34459439  2.54424197  5.28037993
   2.93783803  5.08848395  5.28037993
   5.87567571  5.08848395  5.28037993
   8.81351288  5.08848395  5.28037993
   1.46891893  0.84808064  7.67911405
   4.40675623  0.84808064  7.67911405
   7.34459418  0.84808064  7.67911405
   2.93783798  3.39232256  7.67911405
   5.87567574  3.39232256  7.67911405
   8.81351263  3.39232256  7.67911405
   4.40675667  5.93656453  7.67911405
   7.34459449  5.93656453  7.67911405
  10.28243270  5.93656453  7.67911405
   8.81351299  1.69636455 10.07468643
   2.94337935  1.69936065 10.06127235
   5.87013408  1.69936065 10.06127235
  10.27219934  4.24631123 10.06987170
   4.40675655  4.23400462 10.06127235
   7.35482735  4.24631123 10.06987170
  11.75117491  6.78454347 10.07468643
   5.87585201  6.78454347 10.07468643
   8.81351299  6.77282938 10.06987170
   0.00000000  0.00000000 12.49672013
   2.97726827  0.06001992 12.55884472
   5.83624480  0.06001992 12.55884472
   1.54061308  2.54837989 12.55884472
   7.27290032  2.54837989 12.55884472
   2.97010152  5.02432610 12.55884472
   5.84341222  5.02432610 12.55884472
   8.81351288  5.08848395 12.50791151
   4.40675643  2.54424197 12.31154794
   3.67429856  2.54513188 14.20612873
   5.13921431  2.54513188 14.20612873
 


--------------------------------------------------------------------------------------------------------


 k-point   1 :   0.0000 0.0000 0.0000  plane waves:   41363
 k-point   2 :   0.1250 0.0000 0.0000  plane waves:   41482
 k-point   3 :   0.0000 0.1250 0.0000  plane waves:   41482
 k-point   4 :   0.2500 0.0000 0.0000  plane waves:   41496
 k-point   5 :   0.0000 0.2500 0.0000  plane waves:   41496
 k-point   6 :   0.3750-0.0000 0.0000  plane waves:   41568
 k-point   7 :   0.0000 0.3750 0.0000  plane waves:   41568
 k-point   8 :   0.5000 0.0000 0.0000  plane waves:   41500
 k-point   9 :   0.0000 0.5000 0.0000  plane waves:   41500
 k-point  10 :   0.2500 0.1250 0.0000  plane waves:   41456
 k-point  11 :   0.1250 0.2500 0.0000  plane waves:   41456
 k-point  12 :   0.3750 0.1250 0.0000  plane waves:   41540
 k-point  13 :   0.2500 0.3750 0.0000  plane waves:   41540
 k-point  14 :  -0.1250 0.2500 0.0000  plane waves:   41540
 k-point  15 :   0.5000 0.1250 0.0000  plane waves:   41540
 k-point  16 :   0.3750 0.5000 0.0000  plane waves:   41540
 k-point  17 :  -0.1250 0.3750 0.0000  plane waves:   41540
 k-point  18 :   0.5000 0.2500 0.0000  plane waves:   41588
 k-point  19 :   0.2500 0.5000 0.0000  plane waves:   41588
 k-point  20 :  -0.3750 0.2500 0.0000  plane waves:   41554
 k-point  21 :  -0.2500 0.3750 0.0000  plane waves:   41554

 maximum and minimum number of plane-waves per node :     41588    41363

 maximum number of plane-waves:     41588
 maximum index in each direction: 
   IXMAX=   16   IYMAX=   16   IZMAX=   44
   IXMIN=  -16   IYMIN=  -16   IZMIN=  -44


 serial   3D FFT for wavefunctions
 parallel 3D FFT for charge:
    minimum data exchange during FFTs selected (reduces bandwidth)


 total amount of memory used by VASP MPI-rank0   198165. kBytes
=======================================================================

   base      :      30000. kBytes
   nonlr-proj:      15056. kBytes
   fftplans  :       4808. kBytes
   grid      :      19857. kBytes
   one-center:        590. kBytes
   wavefun   :     127854. kBytes
 
     INWAV:  cpu time    0.0000: real time    0.0001
 initial charge density was supplied:
 number of electron     401.0000040 magnetization 
 keeping initial charge density in first step


--------------------------------------------------------------------------------------------------------


 Maximum index for non-local projection operator         3673
 Maximum index for augmentation-charges          860 (set IRDMAX)


--------------------------------------------------------------------------------------------------------


 First call to EWALD:  gamma=   0.150
 Maximum number of real-space cells 4x 4x 2
 Maximum number of reciprocal cells 2x 2x 5

    FEWALD:  cpu time    0.0013: real time    0.0013


--------------------------------------- Iteration      1(   1)  ---------------------------------------


    POTLOK:  cpu time    0.0580: real time    0.0584
    SETDIJ:  cpu time    0.0052: real time    0.0053
     EDDAV:  cpu time   16.2122: real time   16.2137
 BZINTS: Fermi energy:   10.980956;  401.000000 electrons
         Band energy: 0.131155E+04;  BLOECHL correction:   -0.023247
       DOS:  cpu time    0.0304: real time    0.0304
    --------------------------------------------
      LOOP:  cpu time   16.3058: real time   16.3078

 eigenvalue-minimisations  : 10584
 total energy-change (2. order) : 0.2701748E+04  (-0.1795658E+05)
 number of electron     401.0000040 magnetization 
 augmentation part      401.0000040 magnetization 

 Free energy of the ion-electron system (eV)
  ---------------------------------------------------
  alpha Z        PSCENC =       940.23796183
  Ewald energy   TEWEN  =    124986.87156333
  -Hartree energ DENC   =   -159194.47308506
  -exchange      EXHF   =         0.00000000
  -V(xc)+E(xc)   XCENC  =       521.56884912
  PAW double counting   =     36613.37810811   -35830.88769746
  entropy T*S    EENTRO =         0.00000000
  eigenvalues    EBANDS =      1311.55282319
  atomic energy  EATOM  =     33353.49942739
  Solvation  Ediel_sol  =         0.00000000
  ---------------------------------------------------
  free energy    TOTEN  =      2701.74795045 eV

  energy without entropy =     2701.74795045  energy(sigma->0) =     2701.74795045


--------------------------------------------------------------------------------------------------------




--------------------------------------- Iteration      1(   2)  ---------------------------------------


     EDDAV:  cpu time   17.8231: real time   17.8233
 BZINTS: Fermi energy:    1.013632;  401.000000 electrons
         Band energy:-0.136909E+04;  BLOECHL correction:   -0.033659
       DOS:  cpu time    0.0295: real time    0.0295
    --------------------------------------------
      LOOP:  cpu time   17.8526: real time   17.8529

 eigenvalue-minimisations  : 11928
 total energy-change (2. order) :-0.2680639E+04  (-0.2498055E+04)
 number of electron     401.0000040 magnetization 
 augmentation part      401.0000040 magnetization 

 Free energy of the ion-electron system (eV)
  ---------------------------------------------------
  alpha Z        PSCENC =       940.23796183
  Ewald energy   TEWEN  =    124986.87156333
  -Hartree energ DENC   =   -159194.47308506
  -exchange      EXHF   =         0.00000000
  -V(xc)+E(xc)   XCENC  =       521.56884912
  PAW double counting   =     36613.37810811   -35830.88769746
  entropy T*S    EENTRO =         0.00000000
  eigenvalues    EBANDS =     -1369.08599780
  atomic energy  EATOM  =     33353.49942739
  Solvation  Ediel_sol  =         0.00000000
  ---------------------------------------------------
  free energy    TOTEN  =        21.10912946 eV

  energy without entropy =       21.10912946  energy(sigma->0) =       21.10912946


--------------------------------------------------------------------------------------------------------




--------------------------------------- Iteration      1(   3)  ---------------------------------------


     EDDAV:  cpu time   18.3989: real time   18.3991
 BZINTS: Fermi energy:    0.152727;  401.000000 electrons
         Band energy:-0.151637E+04;  BLOECHL correction:   -0.078026
       DOS:  cpu time    0.0292: real time    0.0292
    --------------------------------------------
      LOOP:  cpu time   18.4280: real time   18.4283

 eigenvalue-minimisations  : 12348
 total energy-change (2. order) :-0.1472857E+03  (-0.1424628E+03)
 number of electron     401.0000040 magnetization 
 augmentation part      401.0000040 magnetization 

 Free energy of the ion-electron system (eV)
  ---------------------------------------------------
  alpha Z        PSCENC =       940.23796183
  Ewald energy   TEWEN  =    124986.87156333
  -Hartree energ DENC   =   -159194.47308506
  -exchange      EXHF   =         0.00000000
  -V(xc)+E(xc)   XCENC  =       521.56884912
  PAW double counting   =     36613.37810811   -35830.88769746
  entropy T*S    EENTRO =         0.00000000
  eigenvalues    EBANDS =     -1516.37174330
  atomic energy  EATOM  =     33353.49942739
  Solvation  Ediel_sol  =         0.00000000
  ---------------------------------------------------
  free energy    TOTEN  =      -126.17661604 eV

  energy without entropy =     -126.17661604  energy(sigma->0) =     -126.17661604


--------------------------------------------------------------------------------------------------------




--------------------------------------- Iteration      1(   4)  ---------------------------------------


     EDDAV:  cpu time   18.3172: real time   18.3173
 BZINTS: Fermi energy:    0.129699;  401.000000 electrons
         Band energy:-0.151989E+04;  BLOECHL correction:   -0.078754
       DOS:  cpu time    0.0299: real time    0.0299
    --------------------------------------------
      LOOP:  cpu time   18.3470: real time   18.3472

 eigenvalue-minimisations  : 12292
 total energy-change (2. order) :-0.3522685E+01  (-0.3490211E+01)
 number of electron     401.0000040 magnetization 
 augmentation part      401.0000040 magnetization 

 Free energy of the ion-electron system (eV)
  ---------------------------------------------------
  alpha Z        PSCENC =       940.23796183
  Ewald energy   TEWEN  =    124986.87156333
  -Hartree energ DENC   =   -159194.47308506
  -exchange      EXHF   =         0.00000000
  -V(xc)+E(xc)   XCENC  =       521.56884912
  PAW double counting   =     36613.37810811   -35830.88769746
  entropy T*S    EENTRO =         0.00000000
  eigenvalues    EBANDS =     -1519.89442851
  atomic energy  EATOM  =     33353.49942739
  Solvation  Ediel_sol  =         0.00000000
  ---------------------------------------------------
  free energy    TOTEN  =      -129.69930125 eV

  energy without entropy =     -129.69930125  energy(sigma->0) =     -129.69930125


--------------------------------------------------------------------------------------------------------




--------------------------------------- Iteration      1(   5)  ---------------------------------------


     EDDAV:  cpu time   19.0882: real time   19.0885
 BZINTS: Fermi energy:    0.129351;  401.000000 electrons
         Band energy:-0.152001E+04;  BLOECHL correction:   -0.078696
       DOS:  cpu time    0.0292: real time    0.0292
    --------------------------------------------
      LOOP:  cpu time   19.1173: real time   19.1177

 eigenvalue-minimisations  : 12936
 total energy-change (2. order) :-0.1141763E+00  (-0.1141525E+00)
 number of electron     401.0000040 magnetization 
 augmentation part      401.0000040 magnetization 

 Free energy of the ion-electron system (eV)
  ---------------------------------------------------
  alpha Z        PSCENC =       940.23796183
  Ewald energy   TEWEN  =    124986.87156333
  -Hartree energ DENC   =   -159194.47308506
  -exchange      EXHF   =         0.00000000
  -V(xc)+E(xc)   XCENC  =       521.56884912
  PAW double counting   =     36613.37810811   -35830.88769746
  entropy T*S    EENTRO =         0.00000000
  eigenvalues    EBANDS =     -1520.00860481
  atomic energy  EATOM  =     33353.49942739
  Solvation  Ediel_sol  =         0.00000000
  ---------------------------------------------------
  free energy    TOTEN  =      -129.81347755 eV

  energy without entropy =     -129.81347755  energy(sigma->0) =     -129.81347755


--------------------------------------------------------------------------------------------------------




--------------------------------------- Iteration      1(   6)  ---------------------------------------


    EDDIAG:  cpu time    3.2247: real time    3.2251
  RMM-DIIS:  cpu time    9.7366: real time    9.7367
    ORTHCH:  cpu time    0.5868: real time    0.5868
 BZINTS: Fermi energy:    0.129350;  401.000000 electrons
         Band energy:-0.152001E+04;  BLOECHL correction:   -0.078696
       DOS:  cpu time    0.0291: real time    0.0291
    --------------------------------------------
      LOOP:  cpu time   13.5772: real time   13.5777

 eigenvalue-minimisations  : 11075
 total energy-change (2. order) :-0.2481697E-02  (-0.2481730E-02)
 number of electron     401.0000040 magnetization 
 augmentation part      401.0000040 magnetization 

 Free energy of the ion-electron system (eV)
  ---------------------------------------------------
  alpha Z        PSCENC =       940.23796183
  Ewald energy   TEWEN  =    124986.87156333
  -Hartree energ DENC   =   -159194.47308506
  -exchange      EXHF   =         0.00000000
  -V(xc)+E(xc)   XCENC  =       521.56884912
  PAW double counting   =     36613.37810811   -35830.88769746
  entropy T*S    EENTRO =         0.00000000
  eigenvalues    EBANDS =     -1520.01108651
  atomic energy  EATOM  =     33353.49942739
  Solvation  Ediel_sol  =         0.00000000
  ---------------------------------------------------
  free energy    TOTEN  =      -129.81595924 eV

  energy without entropy =     -129.81595924  energy(sigma->0) =     -129.81595924


--------------------------------------------------------------------------------------------------------




--------------------------------------- Iteration      1(   7)  ---------------------------------------


    EDDIAG:  cpu time    3.2315: real time    3.2316
  RMM-DIIS:  cpu time   12.9707: real time   12.9707
    ORTHCH:  cpu time    0.5862: real time    0.5862
 BZINTS: Fermi energy:    0.129349;  401.000000 electrons
         Band energy:-0.152001E+04;  BLOECHL correction:   -0.078696
       DOS:  cpu time    0.0298: real time    0.0298
    --------------------------------------------
      LOOP:  cpu time   16.8181: real time   16.8183

 eigenvalue-minimisations  : 15264
 total energy-change (2. order) :-0.8952416E-03  (-0.8920142E-03)
 number of electron     401.0000040 magnetization 
 augmentation part      401.0000040 magnetization 

 Free energy of the ion-electron system (eV)
  ---------------------------------------------------
  alpha Z        PSCENC =       940.23796183
  Ewald energy   TEWEN  =    124986.87156333
  -Hartree energ DENC   =   -159194.47308506
  -exchange      EXHF   =         0.00000000
  -V(xc)+E(xc)   XCENC  =       521.56884912
  PAW double counting   =     36613.37810811   -35830.88769746
  entropy T*S    EENTRO =         0.00000000
  eigenvalues    EBANDS =     -1520.01198175
  atomic energy  EATOM  =     33353.49942739
  Solvation  Ediel_sol  =         0.00000000
  ---------------------------------------------------
  free energy    TOTEN  =      -129.81685449 eV

  energy without entropy =     -129.81685449  energy(sigma->0) =     -129.81685449


--------------------------------------------------------------------------------------------------------




--------------------------------------- Iteration      1(   8)  ---------------------------------------


    EDDIAG:  cpu time    3.2291: real time    3.2291
  RMM-DIIS:  cpu time   10.2544: real time   10.2545
    ORTHCH:  cpu time    0.5876: real time    0.5876
 BZINTS: Fermi energy:    0.129349;  401.000000 electrons
         Band energy:-0.152001E+04;  BLOECHL correction:   -0.078696
       DOS:  cpu time    0.0292: real time    0.0292
    --------------------------------------------
      LOOP:  cpu time   14.1002: real time   14.1004

 eigenvalue-minimisations  : 11686
 total energy-change (2. order) :-0.5234440E-04  (-0.5174608E-04)
 number of electron     401.0000040 magnetization 
 augmentation part      401.0000040 magnetization 

 Free energy of the ion-electron system (eV)
  ---------------------------------------------------
  alpha Z        PSCENC =       940.23796183
  Ewald energy   TEWEN  =    124986.87156333
  -Hartree energ DENC   =   -159194.47308506
  -exchange      EXHF   =         0.00000000
  -V(xc)+E(xc)   XCENC  =       521.56884912
  PAW double counting   =     36613.37810811   -35830.88769746
  entropy T*S    EENTRO =         0.00000000
  eigenvalues    EBANDS =     -1520.01203409
  atomic energy  EATOM  =     33353.49942739
  Solvation  Ediel_sol  =         0.00000000
  ---------------------------------------------------
  free energy    TOTEN  =      -129.81690683 eV

  energy without entropy =     -129.81690683  energy(sigma->0) =     -129.81690683


--------------------------------------------------------------------------------------------------------




--------------------------------------- Iteration      1(   9)  ---------------------------------------


    EDDIAG:  cpu time    3.2319: real time    3.2320
  RMM-DIIS:  cpu time    8.6195: real time    8.6195
    ORTHCH:  cpu time    0.5862: real time    0.5862
 BZINTS: Fermi energy:    0.129349;  401.000000 electrons
         Band energy:-0.152001E+04;  BLOECHL correction:   -0.078696
       DOS:  cpu time    0.0279: real time    0.0279
    --------------------------------------------
      LOOP:  cpu time   12.4654: real time   12.4655

 eigenvalue-minimisations  :  8910
 total energy-change (2. order) :-0.8626463E-05  (-0.8785901E-05)
 number of electron     401.0000040 magnetization 
 augmentation part      401.0000040 magnetization 

 Free energy of the ion-electron system (eV)
  ---------------------------------------------------
  alpha Z        PSCENC =       940.23796183
  Ewald energy   TEWEN  =    124986.87156333
  -Hartree energ DENC   =   -159194.47308506
  -exchange      EXHF   =         0.00000000
  -V(xc)+E(xc)   XCENC  =       521.56884912
  PAW double counting   =     36613.37810811   -35830.88769746
  entropy T*S    EENTRO =         0.00000000
  eigenvalues    EBANDS =     -1520.01204272
  atomic energy  EATOM  =     33353.49942739
  Solvation  Ediel_sol  =         0.00000000
  ---------------------------------------------------
  free energy    TOTEN  =      -129.81691546 eV

  energy without entropy =     -129.81691546  energy(sigma->0) =     -129.81691546


--------------------------------------------------------------------------------------------------------




 average (electrostatic) potential at core
  the test charge radii are     1.2098  1.2481  0.7215
  (the norm of the test charge is              1.0000)
       1 -72.8840       2 -72.8834       3 -72.8833       4 -72.8865       5 -72.9032
       6 -72.8862       7 -72.8792       8 -72.8790       9 -72.8843      10 -73.2258
      11 -73.2320      12 -73.2255      13 -73.2264      14 -73.2259      15 -73.2260
      16 -73.2300      17 -73.2167      18 -73.2168      19 -73.1906      20 -73.5855
      21 -73.5850      22 -73.2090      23 -73.5820      24 -73.2084      25 -73.1760
      26 -73.1760      27 -73.2003      28 -72.8939      29 -73.0617      30 -73.0617
      31 -73.0249      32 -73.0245      33 -73.0731      34 -73.0728      35 -72.8876
      36 -41.5284      37 -76.2627      38 -76.2627
 
 
 
 E-fermi :   0.1293     XC(G=0):  -5.6729     alpha+bet : -5.3406

 Fermi energy:         0.1293491771

 k-point     1 :       0.0000    0.0000    0.0000
  band No.  band energies     occupation 
      1     -21.8069      2.00000
      2     -15.0871      2.00000
      3      -8.7152      2.00000
      4      -7.6109      2.00000
      5      -6.8607      2.00000
      6      -6.6147      2.00000
      7      -6.5819      2.00000
      8      -6.5795      2.00000
      9      -6.5451      2.00000
     10      -6.5245      2.00000
     11      -6.4931      2.00000
     12      -6.4880      2.00000
     13      -6.2178      2.00000
     14      -6.1004      2.00000
     15      -6.0997      2.00000
     16      -6.0941      2.00000
     17      -6.0833      2.00000
     18      -6.0101      2.00000
     19      -5.9788      2.00000
     20      -5.7331      2.00000
     21      -5.7193      2.00000
     22      -5.7185      2.00000
     23      -5.7077      2.00000
     24      -5.6531      2.00000
     25      -5.6339      2.00000
     26      -5.6286      2.00000
     27      -5.5851      2.00000
     28      -5.5181      2.00000
     29      -5.5032      2.00000
     30      -5.4988      2.00000
     31      -5.4869      2.00000
     32      -5.3839      2.00000
     33      -5.3648      2.00000
     34      -5.3561      2.00000
     35      -5.3462      2.00000
     36      -5.3307      2.00000
     37      -5.3303      2.00000
     38      -5.3230      2.00000
     39      -5.3197      2.00000
     40      -5.2944      2.00000
     41      -5.2864      2.00000
     42      -5.2839      2.00000
     43      -5.2208      2.00000
     44      -5.1580      2.00000
     45      -4.9712      2.00000
     46      -4.8463      2.00000
     47      -4.8216      2.00000
     48      -4.8141      2.00000
     49      -4.7946      2.00000
     50      -4.7750      2.00000
     51      -4.7650      2.00000
     52      -4.7622      2.00000
     53      -4.7260      2.00000
     54      -4.7065      2.00000
     55      -4.6685      2.00000
     56      -4.6458      2.00000
     57      -4.6458      2.00000
     58      -4.5790      2.00000
     59      -4.5095      2.00000
     60      -4.3288      2.00000
     61      -4.3061      2.00000
     62      -4.2969      2.00000
     63      -4.2651      2.00000
     64      -4.2600      2.00000
     65      -4.2421      2.00000
     66      -4.2363      2.00000
     67      -4.1947      2.00000
     68      -4.1925      2.00000
     69      -4.1222      2.00000
     70      -4.1187      2.00000
     71      -4.1066      2.00000
     72      -4.0853      2.00000
     73      -4.0817      2.00000
     74      -4.0584      2.00000
     75      -4.0490      2.00000
     76      -4.0436      2.00000
     77      -4.0018      2.00000
     78      -4.0006      2.00000
     79      -3.9805      2.00000
     80      -3.9756      2.00000
     81      -3.9742      2.00000
     82      -3.9739      2.00000
     83      -3.9696      2.00000
     84      -3.9631      2.00000
     85      -3.9161      2.00000
     86      -3.9082      2.00000
     87      -3.9012      2.00000
     88      -3.8802      2.00000
     89      -3.8768      2.00000
     90      -3.8345      2.00000
     91      -3.8139      2.00000
     92      -3.8137      2.00000
     93      -3.8121      2.00000
     94      -3.7998      2.00000
     95      -3.7771      2.00000
     96      -3.7146      2.00000
     97      -3.7113      2.00000
     98      -3.7090      2.00000
     99      -3.5447      2.00000
    100      -3.5273      2.00000
    101      -3.5267      2.00000
    102      -3.5237      2.00000
    103      -3.5177      2.00000
    104      -3.4081      2.00000
    105      -3.4078      2.00000
    106      -3.3950      2.00000
    107      -3.3801      2.00000
    108      -3.3547      2.00000
    109      -3.3162      2.00000
    110      -3.2996      2.00000
    111      -3.2385      2.00000
    112      -3.2350      2.00000
    113      -3.1640      2.00000
    114      -3.1536      2.00000
    115      -3.1444      2.00000
    116      -3.1387      2.00000
    117      -3.1031      2.00000
    118      -3.0919      2.00000
    119      -3.0686      2.00000
    120      -3.0585      2.00000
    121      -2.9690      2.00000
    122      -2.9264      2.00000
    123      -2.9095      2.00000
    124      -2.8930      2.00000
    125      -2.8890      2.00000
    126      -2.8801      2.00000
    127      -2.8318      2.00000
    128      -2.8217      2.00000
    129      -2.8132      2.00000
    130      -2.7861      2.00000
    131      -2.7683      2.00000
    132      -2.7671      2.00000
    133      -2.7102      2.00000
    134      -2.6616      2.00000
    135      -2.6477      2.00000
    136      -2.6352      2.00000
    137      -2.6332      2.00000
    138      -2.6289      2.00000
    139      -2.6216      2.00000
    140      -2.6150      2.00000
    141      -2.5999      2.00000
    142      -2.5996      2.00000
    143      -2.5727      2.00000
    144      -2.5032      2.00000
    145      -2.4781      2.00000
    146      -2.4265      2.00000
    147      -2.4137      2.00000
    148      -2.4059      2.00000
    149      -2.4034      2.00000
    150      -2.3908      2.00000
    151      -2.3809      2.00000
    152      -2.3602      2.00000
    153      -2.3493      2.00000
    154      -2.3434      2.00000
    155      -2.3326      2.00000
    156      -2.3205      2.00000
    157      -2.2823      2.00000
    158      -2.2814      2.00000
    159      -2.2700      2.00000
    160      -2.2382      2.00000
    161      -2.2282      2.00000
    162      -2.2250      2.00000
    163      -2.2248      2.00000
    164      -2.1900      2.00000
    165      -2.1628      2.00000
    166      -2.1624      2.00000
    167      -2.1583      2.00000
    168      -2.1496      2.00000
    169      -2.1219      2.00000
    170      -2.1201      2.00000
    171      -2.1199      2.00000
    172      -2.1145      2.00000
    173      -2.1027      2.00000
    174      -2.0529      2.00000
    175      -2.0355      2.00000
    176      -2.0170      2.00000
    177      -2.0132      2.00000
    178      -2.0124      2.00000
    179      -2.0079      2.00000
    180      -2.0028      2.00000
    181      -2.0017      2.00000
    182      -1.9984      2.00000
    183      -1.9937      2.00000
    184      -1.9638      2.00000
    185      -1.9314      2.00000
    186      -1.9312      2.00000
    187      -1.8809      2.00000
    188      -1.8803      2.00000
    189      -1.8562      2.00000
    190      -1.7820      2.00000
    191      -1.7787      2.00000
    192      -1.7716      2.00000
    193      -1.7416      2.00000
    194      -1.7373      2.00000
    195      -1.7287      2.00000
    196      -1.5149      2.00000
    197      -0.8357      2.00000
    198      -0.8231      2.00000
    199      -0.5456      2.00000
    200      -0.4839      2.00000
    201      -0.4479      2.00000
    202      -0.4399      2.00000
    203      -0.3925      2.00000
    204      -0.2908      2.00000
    205       0.6216      0.00000
    206       1.1569      0.00000
    207       1.3446      0.00000
    208       1.3687      0.00000
    209       1.6410      0.00000
    210       1.6675      0.00000
    211       1.7145      0.00000
    212       1.8375      0.00000
    213       2.0160      0.00000
    214       2.6026      0.00000
    215       2.7182      0.00000
    216       2.8473      0.00000
    217       3.0226      0.00000
    218       3.0492      0.00000
    219       3.1438      0.00000
    220       3.3953      0.00000
    221       3.5854      0.00000
    222       4.0919      0.00000
    223       4.0988      0.00000
    224       4.2164      0.00000
    225       4.3635      0.00000
    226       4.7902      0.00000
    227       4.8075      0.00000
    228       4.8677      0.00000
    229       4.9291      0.00000
    230       4.9548      0.00000
    231       5.1377      0.00000
    232       5.1901      0.00000
    233       5.2371      0.00000
    234       5.2618      0.00000
    235       5.3376      0.00000
    236       5.4245      0.00000
    237       5.6146      0.00000
    238       5.7899      0.00000
    239       6.2699      0.00000
    240       6.2907      0.00000
    241       6.4803      0.00000
    242       6.4973      0.00000
    243       6.5060      0.00000
    244       6.5636      0.00000
    245       6.6159      0.00000
    246       6.6719      0.00000
    247       6.6977      0.00000
    248       6.7253      0.00000
    249       6.7363      0.00000
    250       6.8329      0.00000
    251       6.9266      0.00000
    252       6.9887      0.00000

 k-point     2 :       0.1250    0.0000    0.0000
  band No.  band energies     occupation 
      1     -21.8069      2.00000
      2     -15.0873      2.00000
      3      -8.6641      2.00000
      4      -7.5621      2.00000
      5      -6.8297      2.00000
      6      -6.8038      2.00000
      7      -6.6302      2.00000
      8      -6.6196      2.00000
      9      -6.4995      2.00000
     10      -6.4491      2.00000
     11      -6.4167      2.00000
     12      -6.4093      2.00000
     13      -6.2013      2.00000
     14      -6.1254      2.00000
     15      -6.1012      2.00000
     16      -6.0743      2.00000
     17      -6.0595      2.00000
     18      -6.0124      2.00000
     19      -5.9610      2.00000
     20      -5.7622      2.00000
     21      -5.7256      2.00000
     22      -5.7049      2.00000
     23      -5.6836      2.00000
     24      -5.6528      2.00000
     25      -5.6284      2.00000
     26      -5.6169      2.00000
     27      -5.5808      2.00000
     28      -5.5522      2.00000
     29      -5.4935      2.00000
     30      -5.4673      2.00000
     31      -5.4404      2.00000
     32      -5.4185      2.00000
     33      -5.4110      2.00000
     34      -5.3936      2.00000
     35      -5.3813      2.00000
     36      -5.3617      2.00000
     37      -5.3423      2.00000
     38      -5.3200      2.00000
     39      -5.2824      2.00000
     40      -5.2421      2.00000
     41      -5.2294      2.00000
     42      -5.1976      2.00000
     43      -5.1758      2.00000
     44      -5.1260      2.00000
     45      -4.9814      2.00000
     46      -4.8855      2.00000
     47      -4.8740      2.00000
     48      -4.8523      2.00000
     49      -4.8390      2.00000
     50      -4.8148      2.00000
     51      -4.7823      2.00000
     52      -4.7560      2.00000
     53      -4.7069      2.00000
     54      -4.6885      2.00000
     55      -4.6513      2.00000
     56      -4.6236      2.00000
     57      -4.6026      2.00000
     58      -4.5732      2.00000
     59      -4.5205      2.00000
     60      -4.3543      2.00000
     61      -4.3345      2.00000
     62      -4.3089      2.00000
     63      -4.2951      2.00000
     64      -4.2678      2.00000
     65      -4.2567      2.00000
[...]
  0.000   0.000   0.000   0.000   0.000   0.000   0.000   0.000   0.000   0.000   0.000   0.000   0.000   0.000   0.000   0.000
  0.000   0.000   0.000   0.000   0.000   0.000   0.000   0.000   0.000   0.000   0.000   0.000   0.000   0.000   0.000   0.000
  0.000   0.000   0.000   0.000   0.000   0.000   0.000   0.000   0.000   0.000   1.000   0.000   0.000   0.000   0.000   0.000
  0.000   0.000   0.000   0.000   0.000   0.000   0.000   0.000   0.000   0.000   0.000   0.000   0.000   0.000   0.000   0.000
  0.000   0.000   0.000   0.000   0.000   0.000   0.000   0.000   0.000   0.000   0.000   0.000   0.000   0.000   0.000   0.000
  0.000   0.000   0.000   0.000   0.000   0.000   0.000   0.000   0.000   0.000   0.000   0.000   0.000   0.000   0.000   0.000
  0.000   0.000   0.000   0.000   0.000   0.000   0.000   0.000   0.000   0.000   0.000   0.000   0.000   0.000   0.000   0.000
  0.000   0.000   0.000   0.000   0.000   0.000   0.000   0.000   0.000   0.000   0.000   0.000   0.000   0.000   0.000   0.000
  0.000   0.000   0.000   0.000   0.000   0.000   0.000   0.000   0.000   0.000   0.000   0.000   0.000   0.000   0.000   0.000
  0.000   0.000   0.000   0.000   0.000   0.000   0.000   0.000   0.000   0.000   0.000   0.000   0.000   0.000   0.000   0.000


------------------------ aborting loop because EDIFF is reached ----------------------------------------





 total charge

# of ion       s       p       d       tot
------------------------------------------
    1        0.547   0.239   8.764   9.551
    2        0.542   0.241   8.764   9.547
    3        0.542   0.241   8.764   9.547
    4        0.542   0.241   8.766   9.549
    5        0.541   0.240   8.765   9.545
    6        0.542   0.241   8.766   9.549
    7        0.542   0.241   8.765   9.548
    8        0.542   0.241   8.765   9.548
    9        0.541   0.240   8.767   9.548
   10        0.522   0.307   8.775   9.603
   11        0.517   0.309   8.776   9.601
   12        0.522   0.307   8.775   9.603
   13        0.518   0.308   8.777   9.602
   14        0.518   0.308   8.777   9.602
   15        0.516   0.309   8.772   9.597
   16        0.524   0.306   8.773   9.603
   17        0.516   0.309   8.772   9.597
   18        0.516   0.309   8.772   9.597
   19        0.515   0.297   8.775   9.586
   20        0.561   0.335   8.744   9.640
   21        0.561   0.335   8.744   9.640
   22        0.512   0.304   8.772   9.589
   23        0.563   0.333   8.745   9.641
   24        0.512   0.304   8.772   9.589
   25        0.520   0.296   8.773   9.589
   26        0.520   0.296   8.773   9.589
   27        0.511   0.304   8.773   9.589
   28        0.543   0.229   8.757   9.529
   29        0.579   0.239   8.753   9.571
   30        0.579   0.239   8.753   9.571
   31        0.576   0.231   8.768   9.575
   32        0.576   0.231   8.768   9.575
   33        0.577   0.239   8.754   9.570
   34        0.577   0.239   8.754   9.570
   35        0.541   0.231   8.757   9.528
   36        0.544   0.676   2.191   3.411
   37        1.612   3.255   0.000   4.867
   38        1.612   3.255   0.000   4.867
--------------------------------------------------
tot         22.640  16.802 308.979 348.421
 
    CHARGE:  cpu time    0.7880: real time    0.7881
    FORLOC:  cpu time    0.0114: real time    0.0114
    FORNL :  cpu time    3.3188: real time    3.3189
    STRESS:  cpu time    9.9538: real time    9.9540
    FORCOR:  cpu time    0.0623: real time    0.0624
    FORHAR:  cpu time    0.0193: real time    0.0194
    OFIELD:  cpu time    0.0003: real time    0.0003

  FORCE on cell =-STRESS in cart. coord.  units (eV):
  Direction    XX          YY          ZZ          XY          YZ          ZX
  --------------------------------------------------------------------------------------
  Alpha Z   940.23796   940.23796   940.23796
  Ewald  147700.27672147357.24726************    -0.00031    -0.24225    -0.00011
  Hartree156042.88846155877.53910************     0.00001    -0.00925    -0.00004
  E(xc)   -1803.52126 -1803.59895 -1812.47115     0.00001     0.02555    -0.00000
  Local  ************************315628.27019     0.00258     0.18428     0.00001
  n-local   -84.31305   -88.81821   -63.93801     4.61039    -0.28815     0.06113
  augment  2373.81188  2378.26425  2396.06877    -0.00141     0.11045     0.00001
  Kinetic  5616.46757  5657.44139  5703.72647     1.10540     0.16343     0.08197
  Fock        0.00000     0.00000     0.00000     0.00000     0.00000     0.00000
  -------------------------------------------------------------------------------------
  Total     -15.17218   -16.48175     1.30714    -0.00000    -0.05594    -0.00000
  in kB     -14.86223   -16.14505     1.28044    -0.00000    -0.05480    -0.00000
  external pressure =       -9.91 kB  Pullay stress =        0.00 kB


 VOLUME and BASIS-vectors are now :
 -----------------------------------------------------------------------------
  energy-cutoff  :      500.00
  volume of cell :     1635.59
      direct lattice vectors                 reciprocal lattice vectors
     8.813512802  0.000000000  0.000000000     0.113462137 -0.065507406  0.000000000
     4.406756909  7.632725690  0.000000000     0.000000000  0.131014796  0.000000000
     0.000000000  0.000000000 24.313408842     0.000000000  0.000000000  0.041129568

  length of vectors
     8.813512802  8.813512802 24.313408842     0.131014796  0.131014796  0.041129568


 FORCES acting on ions
    electron-ion (+dipol)            ewald-force                    non-local-force                 convergence-correction
 -----------------------------------------------------------------------------------------------
   -.198E-04 0.773E-01 0.265E+04   0.518E-04 -.263E-01 -.265E+04   -.130E-09 -.195E-02 -.431E+00   -.281E-03 -.559E-01 -.114E+00
   -.245E-01 -.184E+00 0.265E+04   -.878E-01 0.137E+00 -.265E+04   -.105E-01 0.262E-01 -.297E+00   0.108E+00 0.152E-01 -.150E+00
   0.244E-01 -.184E+00 0.265E+04   0.877E-01 0.137E+00 -.265E+04   0.105E-01 0.262E-01 -.297E+00   -.108E+00 0.173E-01 -.149E+00
   -.286E+00 0.118E+00 0.265E+04   0.967E-01 -.158E+00 -.265E+04   0.377E-01 -.392E-01 -.318E+00   0.141E+00 0.714E-01 -.150E+00
   0.766E-05 0.110E-01 0.265E+04   0.951E-04 -.242E-03 -.265E+04   -.558E-09 -.838E-02 -.442E+00   0.439E-02 -.256E-02 -.157E+00
   0.286E+00 0.118E+00 0.265E+04   -.968E-01 -.158E+00 -.265E+04   -.377E-01 -.392E-01 -.318E+00   -.143E+00 0.723E-01 -.149E+00
   -.176E+00 0.762E-01 0.265E+04   0.185E+00 0.213E-01 -.265E+04   0.162E-01 0.271E-02 -.305E+00   -.203E-01 -.813E-01 -.145E+00
   0.176E+00 0.762E-01 0.265E+04   -.186E+00 0.213E-01 -.265E+04   -.162E-01 0.271E-02 -.305E+00   0.222E-01 -.825E-01 -.145E+00
   0.195E-04 -.103E+00 0.265E+04   0.166E-03 0.266E-01 -.265E+04   0.122E-08 0.183E-01 -.449E+00   -.466E-02 0.553E-01 -.149E+00
   0.212E+00 0.374E+00 0.901E+03   -.157E+00 -.302E+00 -.900E+03   -.223E+00 -.111E+00 -.424E+00   0.132E+00 0.195E-01 -.166E+00
   0.167E-04 -.422E+00 0.900E+03   0.148E-03 0.259E+00 -.899E+03   0.304E-08 0.457E-01 -.299E+00   0.426E-02 0.484E-01 -.160E+00
   -.212E+00 0.374E+00 0.901E+03   0.157E+00 -.302E+00 -.900E+03   0.223E+00 -.111E+00 -.424E+00   -.134E+00 0.215E-01 -.165E+00
   -.632E+00 0.195E+00 0.900E+03   0.423E+00 -.946E-01 -.900E+03   0.835E-01 -.392E-01 -.340E+00   0.674E-01 -.197E-01 -.146E+00
   0.632E+00 0.195E+00 0.900E+03   -.423E+00 -.946E-01 -.900E+03   -.835E-01 -.392E-01 -.340E+00   -.591E-01 -.204E-01 -.145E+00
   0.320E-04 0.201E+01 0.903E+03   0.235E-03 -.217E+01 -.902E+03   0.186E-08 0.279E-01 -.442E+00   -.297E-02 0.121E+00 -.141E+00
   -.209E-04 -.333E+00 0.900E+03   0.162E-03 0.243E+00 -.900E+03   0.159E-07 0.239E+00 -.474E+00   0.385E-03 -.109E+00 -.175E+00
   0.190E+01 -.120E+01 0.903E+03   -.199E+01 0.123E+01 -.902E+03   0.171E-01 -.838E-02 -.325E+00   0.558E-01 -.219E-01 -.147E+00
   -.190E+01 -.120E+01 0.903E+03   0.199E+01 0.123E+01 -.902E+03   -.171E-01 -.838E-02 -.325E+00   -.557E-01 -.193E-01 -.147E+00
   -.425E-04 -.379E+01 -.860E+03   0.551E-04 0.340E+01 0.860E+03   0.121E-07 0.182E+00 0.954E+00   -.607E-02 0.148E+00 0.239E-01
   -.150E+02 -.730E+01 -.864E+03   0.157E+02 0.768E+01 0.864E+03   -.110E+01 -.561E+00 -.745E+00   0.108E+00 0.580E-01 -.253E-01
   0.150E+02 -.730E+01 -.864E+03   -.157E+02 0.768E+01 0.864E+03   0.110E+01 -.561E+00 -.745E+00   -.991E-01 0.595E-01 -.264E-01
   -.113E+02 0.510E+01 -.853E+03   0.109E+02 -.488E+01 0.853E+03   0.337E+00 -.249E+00 0.718E+00   0.474E-01 0.114E-01 0.143E-01
   -.313E-05 0.152E+02 -.866E+03   0.138E-03 -.162E+02 0.866E+03   0.892E-07 0.134E+01 -.784E+00   0.561E-02 -.780E-01 -.803E-02
   0.113E+02 0.510E+01 -.853E+03   -.109E+02 -.488E+01 0.853E+03   -.337E+00 -.249E+00 0.718E+00   -.555E-01 0.985E-02 0.146E-01
   0.388E+01 0.294E+01 -.862E+03   -.366E+01 -.269E+01 0.862E+03   -.643E-01 -.992E-01 0.714E+00   -.144E+00 -.120E+00 0.301E-01
   -.388E+01 0.294E+01 -.862E+03   0.366E+01 -.269E+01 0.862E+03   0.643E-01 -.992E-01 0.714E+00   0.139E+00 -.123E+00 0.301E-01
   0.937E-05 -.130E+02 -.855E+03   0.198E-03 0.125E+02 0.855E+03   0.295E-07 0.443E+00 0.870E+00   -.322E-02 0.221E-01 0.127E-01
   -.136E-04 0.555E+01 -.254E+04   0.289E-04 -.552E+01 0.254E+04   0.101E-08 0.151E-01 0.282E+00   -.142E-02 -.675E-01 0.111E+00
   0.191E+02 0.419E+02 -.252E+04   -.182E+02 -.411E+02 0.252E+04   -.124E+01 -.133E+01 0.464E+00   0.666E-01 0.173E-01 0.636E-01
   -.191E+02 0.419E+02 -.252E+04   0.182E+02 -.411E+02 0.252E+04   0.124E+01 -.133E+01 0.464E+00   -.596E-01 0.189E-01 0.632E-01
   0.580E+02 0.369E+01 -.250E+04   -.576E+02 -.364E+01 0.250E+04   -.137E+01 -.984E-01 0.102E+01   0.140E+00 0.641E-01 0.635E-01
   -.580E+02 0.369E+01 -.250E+04   0.576E+02 -.364E+01 0.250E+04   0.137E+01 -.984E-01 0.102E+01   -.135E+00 0.648E-01 0.617E-01
   0.127E+02 -.458E+02 -.252E+04   -.119E+02 0.449E+02 0.252E+04   -.102E+01 0.144E+01 0.505E+00   -.528E-02 -.703E-01 0.650E-01
   -.127E+02 -.458E+02 -.252E+04   0.119E+02 0.449E+02 0.252E+04   0.102E+01 0.144E+01 0.505E+00   0.134E-01 -.711E-01 0.637E-01
   0.316E-04 -.559E+01 -.254E+04   0.143E-03 0.559E+01 0.254E+04   -.346E-09 -.519E-02 0.323E+00   -.586E-02 0.346E-01 0.780E-01
   -.769E-05 0.478E-01 -.755E+03   0.408E-04 -.690E-01 0.759E+03   0.646E-09 0.970E-02 -.169E+01   0.136E-03 0.427E-02 0.401E-01
   0.169E+03 0.199E+00 -.163E+04   -.200E+03 -.156E+00 0.164E+04   0.308E+02 -.504E-01 -.178E+02   0.393E-01 -.103E-03 0.914E-02
   -.169E+03 0.199E+00 -.163E+04   0.200E+03 -.156E+00 0.164E+04   -.308E+02 -.504E-01 -.178E+02   -.395E-01 -.168E-04 0.927E-02
 -----------------------------------------------------------------------------------------------
   -.483E-03 -.918E-01 0.391E+02   0.000E+00 0.689E-13 -.500E-11   0.377E-08 0.566E-01 -.368E+02   0.142E-01 0.117E-01 -.201E+01
 
 
 POSITION                                       TOTAL-FORCE (eV/Angst)
 -----------------------------------------------------------------------------------
      0.00000      0.00000      5.28038        -0.000000     -0.006278     -0.112710
      2.93784      0.00000      5.28038        -0.014608     -0.004215     -0.011253
      5.87568      0.00000      5.28038         0.014608     -0.004215     -0.011253
      1.46892      2.54424      5.28038        -0.009792     -0.006670     -0.022612
      4.40676      2.54424      5.28038         0.000000      0.000416     -0.041519
      7.34459      2.54424      5.28038         0.009792     -0.006670     -0.022612
      2.93784      5.08848      5.28038         0.004100      0.019021     -0.014401
      5.87568      5.08848      5.28038        -0.004100      0.019021     -0.014401
      8.81351      5.08848      5.28038        -0.000000     -0.002359     -0.027368
      1.46892      0.84808      7.67911        -0.034870     -0.017852      0.006420
      4.40676      0.84808      7.67911        -0.000000     -0.068843     -0.018199
      7.34459      0.84808      7.67911         0.034870     -0.017852      0.006420
      2.93784      3.39232      7.67911        -0.062456      0.041870     -0.025748
      5.87568      3.39232      7.67911         0.062456      0.041870     -0.025748
      8.81351      3.39232      7.67911        -0.000000     -0.016791      0.079143
      4.40676      5.93656      7.67911         0.000000      0.041709      0.006461
      7.34459      5.93656      7.67911        -0.019943      0.006222      0.083821
     10.28243      5.93656      7.67911         0.019943      0.006222      0.083821
      8.81351      1.69636     10.07469        -0.000000     -0.059932      0.074924
      2.94338      1.69936     10.06127        -0.245400     -0.119453     -0.234079
      5.87013      1.69936     10.06127         0.245399     -0.119453     -0.234079
     10.27220      4.24631     10.06987         0.047555     -0.012479      0.077077
      4.40676      4.23400     10.06127         0.000000      0.238508     -0.198384
      7.35483      4.24631     10.06987        -0.047555     -0.012479      0.077077
     11.75117      6.78454     10.07469         0.013928      0.030062      0.054452
      5.87585      6.78454     10.07469        -0.013928      0.030062      0.054452
      8.81351      6.77283     10.06987         0.000000      0.040755      0.084975
      0.00000      0.00000     12.49672        -0.000000     -0.022390     -0.075393
      2.97727      0.06002     12.55884        -0.242551     -0.462630     -0.272556
      5.83624      0.06002     12.55884         0.242551     -0.462630     -0.272556
      1.54061      2.54838     12.55884        -0.889367      0.009299     -0.507520
      7.27290      2.54838     12.55884         0.889367      0.009299     -0.507520
      2.97010      5.02433     12.55884        -0.256961      0.436338     -0.281632
      5.84341      5.02433     12.55884         0.256961      0.436338     -0.281632
      8.81351      5.08848     12.50791         0.000000      0.036047     -0.004505
      4.40676      2.54424     12.31155        -0.000000     -0.006586      2.528562
      3.67430      2.54513     14.20613         0.018266     -0.006642      0.000038
      5.13921      2.54513     14.20613        -0.018266     -0.006642      0.000038
 -----------------------------------------------------------------------------------
    total drift:                                0.013684     -0.023528      0.295543


--------------------------------------------------------------------------------------------------------



  FREE ENERGIE OF THE ION-ELECTRON SYSTEM (eV)
  ---------------------------------------------------
  free  energy   TOTEN  =      -129.81691546 eV

  energy  without entropy=     -129.81691546  energy(sigma->0) =     -129.81691546
 


--------------------------------------------------------------------------------------------------------


    POTLOK:  cpu time    0.0469: real time    0.0469


--------------------------------------------------------------------------------------------------------


 stress matrix after NEB project (eV)
    -15.17218     -0.00000     -0.00000
     -0.00000    -16.48175     -0.05594
     -0.00000     -0.05594      1.30714
  FORCES: max atom, RMS     0.019436    0.004459
  FORCE total and by dimension    0.027487    0.018266
  Stress total and by dimension   22.440097   16.481750
     LOOP+:  cpu time  161.2964: real time  161.3082
 -----------------------------------------------------------------------------
|                                                                             |
|           W    W    AA    RRRRR   N    N  II  N    N   GGGG   !!!           |
|           W    W   A  A   R    R  NN   N  II  NN   N  G    G  !!!           |
|           W    W  A    A  R    R  N N  N  II  N N  N  G       !!!           |
|           W WW W  AAAAAA  RRRRR   N  N N  II  N  N N  G  GGG   !            |
|           WW  WW  A    A  R   R   N   NN  II  N   NN  G    G                |
|           W    W  A    A  R    R  N    N  II  N    N   GGGG   !!!           |
|                                                                             |
|     Tetrahedron method does not include variations of the Fermi             |
|     occupations, so forces and stress will be inaccurate. We suggest        |
|     using a different smearing scheme ISMEAR = 1 or 2 for metals in         |
|     relaxations.                                                            |
|                                                                             |
 -----------------------------------------------------------------------------

    4ORBIT:  cpu time    0.0000: real time    0.0000



 total charge

# of ion       s       p       d       tot
------------------------------------------
    1        0.547   0.239   8.764   9.551
    2        0.542   0.241   8.764   9.547
    3        0.542   0.241   8.764   9.547
    4        0.542   0.241   8.766   9.549
    5        0.541   0.240   8.765   9.545
    6        0.542   0.241   8.766   9.549
    7        0.542   0.241   8.765   9.548
    8        0.542   0.241   8.765   9.548
    9        0.541   0.240   8.767   9.548
   10        0.522   0.307   8.775   9.603
   11        0.517   0.309   8.776   9.601
   12        0.522   0.307   8.775   9.603
   13        0.518   0.308   8.777   9.602
   14        0.518   0.308   8.777   9.602
   15        0.516   0.309   8.772   9.597
   16        0.524   0.306   8.773   9.603
   17        0.516   0.309   8.772   9.597
   18        0.516   0.309   8.772   9.597
   19        0.515   0.297   8.775   9.586
   20        0.561   0.335   8.744   9.640
   21        0.561   0.335   8.744   9.640
   22        0.512   0.304   8.772   9.589
   23        0.563   0.333   8.745   9.641
   24        0.512   0.304   8.772   9.589
   25        0.520   0.296   8.773   9.589
   26        0.520   0.296   8.773   9.589
   27        0.511   0.304   8.773   9.589
   28        0.543   0.229   8.757   9.529
   29        0.579   0.239   8.753   9.571
   30        0.579   0.239   8.753   9.571
   31        0.576   0.231   8.768   9.575
   32        0.576   0.231   8.768   9.575
   33        0.577   0.239   8.754   9.570
   34        0.577   0.239   8.754   9.570
   35        0.541   0.231   8.757   9.528
   36        0.544   0.676   2.191   3.411
   37        1.612   3.255   0.000   4.867
   38        1.612   3.255   0.000   4.867
--------------------------------------------------
tot         22.640  16.802 308.979 348.421
 
 BZINTS: Fermi energy:    0.129349;  401.000000 electrons
         Band energy:-0.152001E+04;  BLOECHL correction:   -0.078696

 total amount of memory used by VASP MPI-rank0   198165. kBytes
=======================================================================

   base      :      30000. kBytes
   nonlr-proj:      15056. kBytes
   fftplans  :       4808. kBytes
   grid      :      19857. kBytes
   one-center:        590. kBytes
   wavefun   :     127854. kBytes
 
  
  
 General timing and accounting informations for this job:
 ========================================================
  
                  Total CPU time used (sec):      175.965
                            User time (sec):      169.911
                          System time (sec):        6.054
                         Elapsed time (sec):      176.463
  
                   Maximum memory used (kb):      481820.
                   Average memory used (kb):          N/A
  
                          Minor page faults:       103518
                          Major page faults:            0
                 Voluntary context switches:         5764
