 vasp.6.2.0 18Jan21 (build Jun 12 2021 23:27:24) complex                        
  
 executed on             LinuxIFC date 2022.05.27  05:04:51
 running on   16 total cores
 distrk:  each k-point on   16 cores,    1 groups
 distr:  one band on NCORE=   1 cores,   16 groups


--------------------------------------------------------------------------------------------------------


 INCAR:
   ISMEAR = -5
   SIGMA = 0.1
   ISPIN = 1
   EDIFF = 1.d-5
   EDIFFG = -0.01
   NSW = 0
   NELM = 150
   ENCUT = 500
   ISIF = 2
   IBRION = 2
   LREAL = Auto
   ALGO = Fast
   ICHARG = 11
   LORBIT = 10
   LCHARG = .F.
   LWAVE = .F.

 POTCAR:    PAW_PBE Au 04Oct2007                  
 POTCAR:    PAW_PBE Co 02Aug2007                  
 POTCAR:    PAW_PBE N 08Apr2002                   
 -----------------------------------------------------------------------------
|                                                                             |
|           W    W    AA    RRRRR   N    N  II  N    N   GGGG   !!!           |
|           W    W   A  A   R    R  NN   N  II  NN   N  G    G  !!!           |
|           W    W  A    A  R    R  N N  N  II  N N  N  G       !!!           |
|           W WW W  AAAAAA  RRRRR   N  N N  II  N  N N  G  GGG   !            |
|           WW  WW  A    A  R   R   N   NN  II  N   NN  G    G                |
|           W    W  A    A  R    R  N    N  II  N    N   GGGG   !!!           |
|                                                                             |
|     For optimal performance we recommend to set                             |
|       NCORE = 2 up to number-of-cores-per-socket                            |
|     NCORE specifies how many cores store one orbital (NPAR=cpu/NCORE).      |
|     This setting can greatly improve the performance of VASP for DFT.       |
|     The default, NCORE=1 might be grossly inefficient on modern             |
|     multi-core architectures or massively parallel machines. Do your        |
|     own testing! More info at https://www.vasp.at/wiki/index.php/NCORE      |
|     Unfortunately you need to use the default for GW and RPA                |
|     calculations (for HF NCORE is supported but not extensively tested      |
|     yet).                                                                   |
|                                                                             |
 -----------------------------------------------------------------------------

 POTCAR:    PAW_PBE Au 04Oct2007                  
   VRHFIN =Au: s1d10                                                                                
   LEXCH  = PE                                                                                      
   EATOM  =   926.0867 eV,   68.0654 Ry                                                             
                                                                                                    
   TITEL  = PAW_PBE Au 04Oct2007                                                                    
   LULTRA =        F    use ultrasoft PP ?                                                          
   IUNSCR =        1    unscreen: 0-lin 1-nonlin 2-no                                               
   RPACOR =    2.330    partial core radius                                                         
   POMASS =  196.966; ZVAL   =   11.000    mass and valenz                                          
   RCORE  =    2.500    outmost cutoff radius                                                       
   RWIGS  =    2.840; RWIGS  =    1.503    wigner-seitz radius (au A)                               
   ENMAX  =  229.943; ENMIN  =  172.457 eV                                                          
   ICORE  =        3    local potential                                                             
   LCOR   =        T    correct aug charges                                                         
   LPAW   =        T    paw PP                                                                      
   EAUG   =  356.670                                                                                
   DEXC   =    0.000                                                                                
   RMAX   =    2.562    core radius for proj-oper                                                   
   RAUG   =    1.300    factor for augmentation sphere                                              
   RDEP   =    2.598    radius for radial grids                                                     
   RDEPT  =    2.193    core radius for aug-charge                                                  
                                                                                                    
   Atomic configuration                                                                             
   16 entries                                                                                       
     n  l   j            E        occ.                                                              
     1  0  0.50    -80748.5001   2.0000                                                             
     2  0  0.50    -14244.7466   2.0000                                                             
     2  1  1.50    -12310.9591   6.0000                                                             
     3  0  0.50     -3362.1768   2.0000                                                             
     3  1  1.50     -2801.5463   6.0000                                                             
     3  2  2.50     -2203.8206  10.0000                                                             
     4  0  0.50      -729.8168   2.0000                                                             
     4  1  1.50      -546.0527   6.0000                                                             
     4  2  2.50      -325.7302  10.0000                                                             
     4  3  3.50       -81.1472  14.0000                                                             
     5  0  0.50      -108.3201   2.0000                                                             
     5  1  1.50       -59.7479   6.0000                                                             
     5  2  2.50        -6.8783  10.0000                                                             
     6  0  0.50        -5.7602   1.0000                                                             
     6  1  1.50        -6.8029   0.0000                                                             
     5  3  2.50        -1.3606   0.0000                                                             
   Description                                                                                      
     l       E           TYP  RCUT    TYP  RCUT                                                     
     2     -6.8782861     23  2.500                                                                 
     2     -8.2388687     23  2.500                                                                 
     0     -5.7601759     23  2.500                                                                 
     0     -0.8493231     23  2.500                                                                 
     1     -2.7211652     23  2.500                                                                 
     1     27.2116520     23  2.500                                                                 
     3     -1.3605826     23  2.500                                                                 
  local pseudopotential read in
  partial core-charges read in
  partial kinetic energy density read in
  atomic valenz-charges read in
  non local Contribution for L=           2  read in
    real space projection operators read in
  non local Contribution for L=           2  read in
    real space projection operators read in
  non local Contribution for L=           0  read in
    real space projection operators read in
  non local Contribution for L=           0  read in
    real space projection operators read in
  non local Contribution for L=           1  read in
    real space projection operators read in
  non local Contribution for L=           1  read in
    real space projection operators read in
    PAW grid and wavefunctions read in
 
   number of l-projection  operators is LMAX  =           6
   number of lm-projection operators is LMMAX =          18
 
 POTCAR:    PAW_PBE Co 02Aug2007                  
   VRHFIN =Co: d8 s1                                                                                
   LEXCH  = PE                                                                                      
   EATOM  =   813.3670 eV,   59.7808 Ry                                                             
                                                                                                    
   TITEL  = PAW_PBE Co 02Aug2007                                                                    
   LULTRA =        F    use ultrasoft PP ?                                                          
   IUNSCR =        1    unscreen: 0-lin 1-nonlin 2-no                                               
   RPACOR =    2.000    partial core radius                                                         
   POMASS =   58.933; ZVAL   =    9.000    mass and valenz                                          
   RCORE  =    2.300    outmost cutoff radius                                                       
   RWIGS  =    2.460; RWIGS  =    1.302    wigner-seitz radius (au A)                               
   ENMAX  =  267.968; ENMIN  =  200.976 eV                                                          
   RCLOC  =    1.203    cutoff for local pot                                                        
   LCOR   =        T    correct aug charges                                                         
   LPAW   =        T    paw PP                                                                      
   EAUG   =  477.818                                                                                
   DEXC   =    0.000                                                                                
   RMAX   =    2.360    core radius for proj-oper                                                   
   RAUG   =    1.300    factor for augmentation sphere                                              
   RDEP   =    2.393    radius for radial grids                                                     
   RDEPT  =    1.864    core radius for aug-charge                                                  
                                                                                                    
   Atomic configuration                                                                             
    9 entries                                                                                       
     n  l   j            E        occ.                                                              
     1  0  0.50     -7587.6674   2.0000                                                             
     2  0  0.50      -893.6084   2.0000                                                             
     2  1  1.50      -764.5805   6.0000                                                             
     3  0  0.50       -97.5973   2.0000                                                             
     3  1  1.50       -60.9648   6.0000                                                             
     3  2  2.50        -4.2382   8.0000                                                             
     4  0  0.50        -4.3746   1.0000                                                             
     4  1  1.50        -4.0817   0.0000                                                             
     4  3  2.50        -1.3606   0.0000                                                             
   Description                                                                                      
     l       E           TYP  RCUT    TYP  RCUT                                                     
     2     -4.2382362     23  2.300                                                                 
     2     -5.5988188     23  2.300                                                                 
     0     -4.3745797     23  2.300                                                                 
     0      5.7660125     23  2.300                                                                 
     1     -2.7211652     23  2.300                                                                 
     1     16.9860234     23  2.300                                                                 
  local pseudopotential read in
  partial core-charges read in
  partial kinetic energy density read in
  atomic valenz-charges read in
  non local Contribution for L=           2  read in
    real space projection operators read in
  non local Contribution for L=           2  read in
    real space projection operators read in
  non local Contribution for L=           0  read in
    real space projection operators read in
  non local Contribution for L=           0  read in
    real space projection operators read in
  non local Contribution for L=           1  read in
    real space projection operators read in
  non local Contribution for L=           1  read in
    real space projection operators read in
    PAW grid and wavefunctions read in
 
   number of l-projection  operators is LMAX  =           6
   number of lm-projection operators is LMMAX =          18
 
 POTCAR:    PAW_PBE N 08Apr2002                   
   VRHFIN =N: s2p3                                                                                  
   LEXCH  = PE                                                                                      
   EATOM  =   264.5486 eV,   19.4438 Ry                                                             
                                                                                                    
   TITEL  = PAW_PBE N 08Apr2002                                                                     
   LULTRA =        F    use ultrasoft PP ?                                                          
   IUNSCR =        1    unscreen: 0-lin 1-nonlin 2-no                                               
   RPACOR =    1.200    partial core radius                                                         
   POMASS =   14.001; ZVAL   =    5.000    mass and valenz                                          
   RCORE  =    1.500    outmost cutoff radius                                                       
   RWIGS  =    1.400; RWIGS  =    0.741    wigner-seitz radius (au A)                               
   ENMAX  =  400.000; ENMIN  =  300.000 eV                                                          
   ICORE  =        2    local potential                                                             
   LCOR   =        T    correct aug charges                                                         
   LPAW   =        T    paw PP                                                                      
   EAUG   =  627.112                                                                                
   DEXC   =    0.000                                                                                
   RMAX   =    1.529    core radius for proj-oper                                                   
   RAUG   =    1.300    factor for augmentation sphere                                              
   RDEP   =    1.514    radius for radial grids                                                     
   RDEPT  =    1.338    core radius for aug-charge                                                  
                                                                                                    
   Atomic configuration                                                                             
    4 entries                                                                                       
     n  l   j            E        occ.                                                              
     1  0  0.50      -384.7179   2.0000                                                             
     2  0  0.50       -18.5828   2.0000                                                             
     2  1  0.50        -7.0898   3.0000                                                             
     3  2  1.50        -6.8029   0.0000                                                             
   Description                                                                                      
     l       E           TYP  RCUT    TYP  RCUT                                                     
     0    -18.5828119     23  1.200                                                                 
     0    -13.5018863     23  1.200                                                                 
     1     -7.0897853     23  1.500                                                                 
     1      9.5240782     23  1.500                                                                 
     2     -6.8029130      7  1.500                                                                 
  local pseudopotential read in
  partial core-charges read in
  partial kinetic energy density read in
  atomic valenz-charges read in
  non local Contribution for L=           0  read in
    real space projection operators read in
  non local Contribution for L=           0  read in
    real space projection operators read in
  non local Contribution for L=           1  read in
    real space projection operators read in
  non local Contribution for L=           1  read in
    real space projection operators read in
    PAW grid and wavefunctions read in
 
   number of l-projection  operators is LMAX  =           4
   number of lm-projection operators is LMMAX =           8
 
 Optimization of the real space projectors (new method)

 maximal supplied QI-value         = 15.12
 optimisation between [QCUT,QGAM] = [ 11.34, 22.83] = [ 36.00,145.93] Ry 
 Optimized for a Real-space Cutoff    1.39 Angstroem

   l    n(q)    QCUT    max X(q) W(low)/X(q) W(high)/X(q)  e(spline) 
   2      9    11.338    60.898    0.39E-03    0.42E-03    0.21E-06
   2      9    11.338    58.894    0.40E-03    0.42E-03    0.22E-06
   0      9    11.338   109.617    0.13E-03    0.20E-04    0.13E-06
   0      9    11.338    75.026    0.13E-03    0.20E-04    0.13E-06
   1      9    11.338    16.344    0.33E-04    0.24E-03    0.18E-06
   1      9    11.338    10.160    0.26E-04    0.19E-03    0.15E-06
 Optimization of the real space projectors (new method)

 maximal supplied QI-value         = 16.25
 optimisation between [QCUT,QGAM] = [ 11.38, 22.75] = [ 36.24,144.96] Ry 
 Optimized for a Real-space Cutoff    1.39 Angstroem

   l    n(q)    QCUT    max X(q) W(low)/X(q) W(high)/X(q)  e(spline) 
   2      8    11.376    65.824    0.20E-03    0.32E-04    0.13E-06
   2      8    11.376    61.429    0.20E-03    0.33E-04    0.14E-06
   0      9    11.376    56.174    0.76E-04    0.11E-03    0.19E-06
   0      9    11.376    31.263    0.69E-04    0.99E-04    0.17E-06
   1      9    11.376    19.828    0.35E-03    0.11E-03    0.12E-06
   1      9    11.376    15.139    0.29E-03    0.94E-04    0.10E-06
 Optimization of the real space projectors (new method)

 maximal supplied QI-value         = 25.13
 optimisation between [QCUT,QGAM] = [ 11.31, 22.87] = [ 35.82,146.48] Ry 
 Optimized for a Real-space Cutoff    1.27 Angstroem

   l    n(q)    QCUT    max X(q) W(low)/X(q) W(high)/X(q)  e(spline) 
   0      9    11.310    79.467    0.75E-04    0.16E-03    0.36E-06
   0      9    11.310    66.151    0.74E-04    0.16E-03    0.36E-06
   1      8    11.310    17.416    0.35E-03    0.12E-03    0.95E-06
   1      8    11.310    12.382    0.37E-03    0.13E-03    0.98E-06
  PAW_PBE Au 04Oct2007                  :
 energy of atom  1       EATOM= -926.0867
 kinetic energy error for atom=    0.0042 (will be added to EATOM!!)
  PAW_PBE Co 02Aug2007                  :
 energy of atom  2       EATOM= -813.3670
 kinetic energy error for atom=    0.0028 (will be added to EATOM!!)
  PAW_PBE N 08Apr2002                   :
 energy of atom  3       EATOM= -264.5486
 kinetic energy error for atom=    0.0138 (will be added to EATOM!!)
 
 
 POSCAR: Au-Co-N2
  positions in direct lattice
  velocities in cartesian coordinates
 exchange correlation table for  LEXCH =        8
   RHO(1)=    0.500       N(1)  =     2000
   RHO(2)=  100.500       N(2)  =     4000

 VTST: version 3.2, (02/03/18)

 CHAIN: initializing optimizer
 
 OPT: Using VASP Conjugate-Gradient optimizer
 CHAIN: Read ICHAIN            0
 
 POSCAR: Au-Co-N2
  positions in direct lattice
  velocities in cartesian coordinates
 


--------------------------------------------------------------------------------------------------------


 ion  position               nearest neighbor table
   1  0.000  0.000  0.203-  16 2.94  12 2.94   6 2.94   8 2.94   7 2.94   3 2.94  10 2.94   4 2.94
                             2 2.94
   2  0.333  0.000  0.203-   9 2.94  11 2.94  17 2.94  10 2.94   8 2.94   4 2.94   5 2.94   1 2.94
                             3 2.94
   3  0.667  0.000  0.203-   7 2.94  18 2.94  12 2.94   1 2.94  11 2.94   5 2.94   6 2.94   9 2.94
                             2 2.94
   4  0.000  0.333  0.203-  10 2.94   6 2.94   5 2.94  13 2.94   2 2.94  15 2.94   9 2.94   1 2.94
                             7 2.94
   5  0.333  0.333  0.203-  13 2.94   7 2.94  11 2.94   4 2.94   2 2.94  14 2.94   3 2.94   8 2.94
                             6 2.94
   6  0.667  0.333  0.203-  15 2.94  14 2.94   1 2.94  12 2.94   4 2.94   9 2.94   8 2.94   3 2.94
                             5 2.94
   7  0.000  0.667  0.203-  18 2.94   3 2.94  16 2.94   5 2.94   1 2.94  13 2.94   8 2.94   4 2.94
                             9 2.94
   8  0.333  0.667  0.203-   9 2.94  17 2.94   1 2.94   2 2.94  14 2.94  16 2.94   6 2.94   7 2.94
                             5 2.94
   9  0.667  0.667  0.203-   2 2.94   8 2.94  17 2.94   6 2.94  15 2.94   4 2.94   3 2.94  18 2.94
                             7 2.94
  10  0.111  0.111  0.295-  20 2.92  26 2.93  19 2.93  11 2.94  17 2.94   2 2.94   4 2.94   1 2.94
                            12 2.94  16 2.94  13 2.94  15 2.94
  11  0.444  0.111  0.295-  20 2.91  21 2.91  27 2.93  13 2.94   2 2.94  10 2.94  17 2.94   5 2.94
                             3 2.94  18 2.94  14 2.94  12 2.94
  12  0.778  0.111  0.295-  21 2.92  25 2.93  19 2.93  16 2.94  18 2.94   1 2.94  14 2.94  15 2.94
                             3 2.94   6 2.94  10 2.94  11 2.94
  13  0.111  0.444  0.295-  23 2.91  20 2.91  22 2.93   5 2.94  18 2.94  11 2.94   7 2.94   4 2.94
                            16 2.94  10 2.94  14 2.94  15 2.94
  14  0.444  0.444  0.295-  21 2.91  23 2.91  24 2.93  15 2.94   6 2.94  12 2.94   8 2.94  17 2.94
                             5 2.94  16 2.94  13 2.94  11 2.94
  15  0.778  0.444  0.295-  24 2.92  22 2.92  19 2.93  14 2.94   6 2.94  17 2.94  12 2.94   9 2.94
                             4 2.94  10 2.94  13 2.94  18 2.94
  16  0.111  0.778  0.295-  23 2.92  25 2.93  26 2.93  18 2.94  12 2.94   7 2.94   1 2.94   8 2.94
                            13 2.94  10 2.94  14 2.94  17 2.94
  17  0.444  0.778  0.295-  27 2.92  24 2.92  26 2.93   9 2.94  15 2.94   2 2.94  10 2.94  11 2.94
                             8 2.94  14 2.94  16 2.94  18 2.94
  18  0.778  0.778  0.295-  22 2.92  27 2.92  25 2.93  16 2.94   7 2.94  13 2.94  12 2.94   3 2.94
                            11 2.94   9 2.94  15 2.94  17 2.94
  19  0.889  0.222  0.387-  10 2.93  12 2.93  15 2.93  26 2.94  25 2.94  24 2.94  22 2.94  28 2.94
                            21 2.95  20 2.95  32 2.96  31 2.96
  20  0.223  0.223  0.386-  36 2.69  29 2.91  31 2.91  11 2.91  13 2.91  23 2.91  21 2.91  10 2.92
                            27 2.95  22 2.95  26 2.95  19 2.95
  21  0.554  0.223  0.386-  36 2.69  30 2.91  32 2.91  14 2.91  11 2.91  20 2.91  23 2.91  12 2.92
                            27 2.95  24 2.95  25 2.95  19 2.95
  22  0.887  0.557  0.386-  24 2.91  27 2.91  18 2.92  15 2.92  13 2.93  25 2.94  19 2.94  33 2.94
                            31 2.94  23 2.95  20 2.95  35 2.96
  23  0.223  0.554  0.386-  36 2.69  33 2.91  34 2.91  13 2.91  14 2.91  20 2.91  21 2.91  16 2.92
                            22 2.95  24 2.95  25 2.95  26 2.95
  24  0.557  0.557  0.386-  27 2.91  22 2.91  15 2.92  17 2.92  14 2.93  26 2.94  19 2.94  32 2.94
                            34 2.94  21 2.95  23 2.95  35 2.96
  25  0.889  0.889  0.387-  16 2.93  12 2.93  18 2.93  19 2.94  26 2.94  22 2.94  27 2.94  28 2.94
                            23 2.95  21 2.95  33 2.96  30 2.96
  26  0.222  0.889  0.387-  10 2.93  16 2.93  17 2.93  19 2.94  25 2.94  27 2.94  24 2.94  28 2.94
                            20 2.95  23 2.95  29 2.96  34 2.96
  27  0.557  0.887  0.386-  24 2.91  22 2.91  17 2.92  18 2.92  11 2.93  26 2.94  25 2.94  29 2.94
                            30 2.94  20 2.95  21 2.95  35 2.96
  28  0.000  0.000  0.479-  25 2.94  19 2.94  26 2.94  34 2.98  32 2.98  33 2.98  30 2.98  31 2.98
                            29 2.98
  29  0.334  0.008  0.478-  30 2.86  31 2.87  36 2.88  20 2.91  27 2.94  26 2.96  35 2.98  28 2.98
                            34 3.09
  30  0.658  0.008  0.478-  29 2.86  32 2.87  36 2.88  21 2.91  27 2.94  25 2.96  35 2.98  28 2.98
                            33 3.09
  31  0.008  0.334  0.478-  33 2.86  29 2.87  36 2.88  20 2.91  22 2.94  19 2.96  35 2.98  28 2.98
                            32 3.09
  32  0.658  0.334  0.478-  34 2.86  30 2.87  36 2.88  21 2.91  24 2.94  19 2.96  35 2.98  28 2.98
                            31 3.09
  33  0.008  0.658  0.478-  31 2.86  34 2.87  36 2.88  23 2.91  22 2.94  25 2.96  35 2.98  28 2.98
                            30 3.09
  34  0.334  0.658  0.478-  32 2.86  33 2.87  36 2.88  23 2.91  24 2.94  26 2.96  35 2.98  28 2.98
                            29 3.09
  35  0.667  0.667  0.480-  24 2.96  27 2.96  22 2.96  29 2.98  34 2.98  32 2.98  31 2.98  30 2.98
                            33 2.98
  36  0.333  0.333  0.467-  20 2.69  23 2.69  21 2.69  33 2.88  31 2.88  29 2.88  30 2.88  34 2.88
                            32 2.88
  37  0.273  0.328  0.627-  38 1.11
  38  0.399  0.328  0.627-  37 1.11
 
  LATTYP: Found a hexagonal cell.
 ALAT       =     8.8135128021
 C/A-ratio  =     2.9548556058
  
  Lattice vectors:
  
 A1 = (  -4.4067569092,  -7.6327256898,   0.0000000000)
 A2 = (   8.8135128021,   0.0000000000,   0.0000000000)
 A3 = (   0.0000000000,   0.0000000000,  26.0426577102)


Analysis of symmetry for initial positions (statically):
=====================================================================
 Subroutine PRICEL returns:
 Original cell was already a primitive cell.
 

 Routine SETGRP: Setting up the symmetry group for a 
 hexagonal supercell.


 Subroutine GETGRP returns: Found  2 space group operations
 (whereof  2 operations were pure point group operations)
 out of a pool of 24 trial point group operations.


The static configuration has the point symmetry C_1h.


Analysis of symmetry for dynamics (positions and initial velocities):
=====================================================================
 Subroutine PRICEL returns:
 Original cell was already a primitive cell.
 

 Routine SETGRP: Setting up the symmetry group for a 
 hexagonal supercell.


 Subroutine GETGRP returns: Found  2 space group operations
 (whereof  2 operations were pure point group operations)
 out of a pool of 24 trial point group operations.


The dynamic configuration has the point symmetry C_1h.


Analysis of constrained symmetry for selective dynamics:
=====================================================================
 Subroutine PRICEL returns:
 Original cell was already a primitive cell.
 

 Routine SETGRP: Setting up the symmetry group for a 
 hexagonal supercell.


 Subroutine GETGRP returns: Found  2 space group operations
 (whereof  2 operations were pure point group operations)
 out of a pool of 24 trial point group operations.


The constrained configuration has the point symmetry C_1h.


 Subroutine INISYM returns: Found  2 space group operations
 (whereof  2 operations are pure point group operations),
 and found     1 'primitive' translations


----------------------------------------------------------------------------------------

                                     Primitive cell                                     

  volume of cell :    1751.9189

  direct lattice vectors                    reciprocal lattice vectors
     8.813512802  0.000000000  0.000000000     0.113462137 -0.065507406  0.000000000
     4.406756909  7.632725690  0.000000000     0.000000000  0.131014796  0.000000000
     0.000000000  0.000000000 26.042657710     0.000000000  0.000000000  0.038398539

  length of vectors
     8.813512802  8.813512802 26.042657710     0.131014796  0.131014796  0.038398539

  position of ions in fractional coordinates (direct lattice)
     0.000000000  0.000000000  0.202758873
     0.333333343  0.000000000  0.202758873
     0.666666687  0.000000000  0.202758873
     1.000000000  0.333333343  0.202758873
     0.333333313  0.333333343  0.202758873
     0.666666687  0.333333343  0.202758873
     1.000000000  0.666666687  0.202758873
     0.333333343  0.666666687  0.202758873
     0.666666627  0.666666687  0.202758873
     0.111111119  0.111111112  0.294866758
     0.444444418  0.111111112  0.294866758
     0.777777791  0.111111112  0.294866758
     0.111111127  0.444444448  0.294866758
     0.444444478  0.444444448  0.294866758
     0.777777731  0.444444448  0.294866758
     0.111111090  0.777777791  0.294866758
     0.444444448  0.777777791  0.294866758
     0.777777851  0.777777791  0.294866758
     0.888949268  0.222101481  0.386739576
     0.223217136  0.223217121  0.385934223
     0.553565788  0.223217121  0.385934223
     0.886972908  0.556513576  0.386164207
     0.223217091  0.553565788  0.385934223
     0.556513576  0.556513576  0.386164207
     0.888949268  0.888949268  0.386739576
     0.222101511  0.888949268  0.386739576
     0.556513516  0.886972908  0.386164207
     0.000000000  0.000000000  0.479084980
     0.333506134  0.008416363  0.478283995
     0.658077533  0.008416363  0.478283995
     0.008416363  0.333506134  0.478283995
     0.658077533  0.333506134  0.478283995
     0.008416363  0.658077533  0.478283995
     0.333506134  0.658077533  0.478283995
     0.666666627  0.666666687  0.479627852
     0.333333313  0.333333343  0.466577938
     0.272725903  0.328176572  0.626781013
     0.399097494  0.328176572  0.626781013

  ion indices of the primitive-cell ions
   primitive index   ion index
                 1           1
                 2           2
                 3           3
                 4           4
                 5           5
                 6           6
                 7           7
                 8           8
                 9           9
                10          10
                11          11
                12          12
                13          13
                14          14
                15          15
                16          16
                17          17
                18          18
                19          19
                20          20
                21          21
                22          22
                23          23
                24          24
                25          25
                26          26
                27          27
                28          28
                29          29
                30          30
                31          31
                32          32
                33          33
                34          34
                35          35
                36          36
                37          37
                38          38

----------------------------------------------------------------------------------------

 
 
 KPOINTS: Automatic mesh                          

Automatic generation of k-mesh.
 Grid dimensions read from file:
 generate k-points for:    8    8    1

 Generating k-lattice:

  Cartesian coordinates                     Fractional coordinates (reciprocal lattice)
     0.014182767 -0.008188426  0.000000000     0.125000000 -0.000000000  0.000000000
     0.000000000  0.016376850  0.000000000     0.000000000  0.125000000  0.000000000
     0.000000000  0.000000000  0.038398539     0.000000000  0.000000000  1.000000000

  Length of vectors
     0.016376850  0.016376850  0.038398539

  Shift w.r.t. Gamma in fractional coordinates (k-lattice)
     0.000000000  0.000000000  0.000000000

 TETIRR: Found    100 inequivalent tetrahedra from      384
 
 Subroutine IBZKPT returns following result:
 ===========================================
 
 Found     21 irreducible k-points:
 
 Following reciprocal coordinates:
            Coordinates               Weight
  0.000000  0.000000  0.000000      1.000000
  0.125000 -0.000000  0.000000      4.000000
  0.000000  0.125000  0.000000      2.000000
  0.250000 -0.000000  0.000000      4.000000
  0.000000  0.250000  0.000000      2.000000
  0.375000 -0.000000  0.000000      4.000000
  0.000000  0.375000  0.000000      2.000000
  0.500000 -0.000000  0.000000      2.000000
  0.000000  0.500000  0.000000      1.000000
  0.250000  0.125000  0.000000      2.000000
  0.125000  0.250000  0.000000      4.000000
  0.375000  0.125000  0.000000      4.000000
  0.250000  0.375000  0.000000      4.000000
 -0.125000  0.250000  0.000000      4.000000
  0.500000  0.125000  0.000000      4.000000
  0.375000  0.500000  0.000000      4.000000
 -0.125000  0.375000  0.000000      4.000000
  0.500000  0.250000  0.000000      2.000000
  0.250000  0.500000  0.000000      4.000000
 -0.375000  0.250000  0.000000      4.000000
 -0.250000  0.375000  0.000000      2.000000
 
 Following cartesian coordinates:
            Coordinates               Weight
  0.000000  0.000000  0.000000      1.000000
  0.014183 -0.008188  0.000000      4.000000
  0.000000  0.016377  0.000000      2.000000
  0.028366 -0.016377  0.000000      4.000000
  0.000000  0.032754  0.000000      2.000000
  0.042548 -0.024565  0.000000      4.000000
  0.000000  0.049131  0.000000      2.000000
  0.056731 -0.032754  0.000000      2.000000
  0.000000  0.065507  0.000000      1.000000
  0.028366 -0.000000  0.000000      2.000000
  0.014183  0.024565  0.000000      4.000000
  0.042548 -0.008188  0.000000      4.000000
  0.028366  0.032754  0.000000      4.000000
 -0.014183  0.040942  0.000000      4.000000
  0.056731 -0.016377  0.000000      4.000000
  0.042548  0.040942  0.000000      4.000000
 -0.014183  0.057319  0.000000      4.000000
  0.056731 -0.000000  0.000000      2.000000
  0.028366  0.049131  0.000000      4.000000
 -0.042548  0.057319  0.000000      4.000000
 -0.028366  0.065507  0.000000      2.000000
 


--------------------------------------------------------------------------------------------------------




 Dimension of arrays:
   k-points           NKPTS =     21   k-points in BZ     NKDIM =     21   number of bands    NBANDS=    256
   number of dos      NEDOS =    301   number of ions     NIONS =     38
   non local maximal  LDIM  =      6   non local SUM 2l+1 LMDIM =     18
   total plane-waves  NPLWV = 331776
   max r-space proj   IRMAX =   2179   max aug-charges    IRDMAX=  11779
   dimension x,y,z NGX =    48 NGY =   48 NGZ =  144
   dimension x,y,z NGXF=    96 NGYF=   96 NGZF=  288
   support grid    NGXF=    96 NGYF=   96 NGZF=  288
   ions per type =              35   1   2
   NGX,Y,Z   is equivalent  to a cutoff of   9.05,  9.05,  9.19 a.u.
   NGXF,Y,Z  is equivalent  to a cutoff of  18.11, 18.11, 18.38 a.u.

 SYSTEM =  unknown system                          
 POSCAR =  Au-Co-N2                                

 Startparameter for this run:
   NWRITE =      2    write-flag & timer
   PREC   = normal    normal or accurate (medium, high low for compatibility)
   ISTART =      0    job   : 0-new  1-cont  2-samecut
   ICHARG =     11    charge: 1-file 2-atom 10-const
   ISPIN  =      1    spin polarized calculation?
   LNONCOLLINEAR =      F non collinear calculations
   LSORBIT =      F    spin-orbit coupling
   INIWAV =      1    electr: 0-lowe 1-rand  2-diag
   LASPH  =      F    aspherical Exc in radial PAW
   METAGGA=      F    non-selfconsistent MetaGGA calc.

 Electronic Relaxation 1
   ENCUT  =  500.0 eV  36.75 Ry    6.06 a.u.  16.07 16.07 47.48*2*pi/ulx,y,z
   ENINI  =  500.0     initial cutoff
   ENAUG  =  627.1 eV  augmentation charge cutoff
   NELM   =    150;   NELMIN=  2; NELMDL= -5     # of ELM steps 
   EDIFF  = 0.1E-04   stopping-criterion for ELM
   LREAL  =      T    real-space projection
   NLSPLINE    = F    spline interpolate recip. space projectors
   LCOMPAT=      F    compatible to vasp.4.4
   GGA_COMPAT  = T    GGA compatible to vasp.4.4-vasp.4.6
   LMAXPAW     = -100 max onsite density
   LMAXMIX     =    2 max onsite mixed and CHGCAR
   VOSKOWN=      0    Vosko Wilk Nusair interpolation
   ROPT   =   -0.00050  -0.00050  -0.00050
 Ionic relaxation
   EDIFFG = -.1E-01   stopping-criterion for IOM
   NSW    =      0    number of steps for IOM
   NBLOCK =      1;   KBLOCK =      1    inner block; outer block 
   IBRION =     -1    ionic relax: 0-MD 1-quasi-New 2-CG
   NFREE  =      1    steps in history (QN), initial steepest desc. (CG)
   ISIF   =      2    stress and relaxation
   IWAVPR =     10    prediction:  0-non 1-charg 2-wave 3-comb
   ISYM   =      2    0-nonsym 1-usesym 2-fastsym
   LCORR  =      T    Harris-Foulkes like correction to forces

   POTIM  = 0.5000    time-step for ionic-motion
   TEIN   =    0.0    initial temperature
   TEBEG  =    0.0;   TEEND  =   0.0 temperature during run
   SMASS  =  -3.00    Nose mass-parameter (am)
   estimated Nose-frequenzy (Omega)   =  0.10E-29 period in steps = 0.13E+47 mass=  -0.178E-26a.u.
   SCALEE = 1.0000    scale energy and forces
   NPACO  =    256;   APACO  = 16.0  distance and # of slots for P.C.
   PSTRESS=    0.0 pullay stress

  Mass of Ions in am
   POMASS = 196.97 58.93 14.00
  Ionic Valenz
   ZVAL   =  11.00  9.00  5.00
  Atomic Wigner-Seitz radii
   RWIGS  =  -1.00 -1.00 -1.00
  virtual crystal weights 
   VCA    =   1.00  1.00  1.00
   NELECT =     404.0000    total number of electrons
   NUPDOWN=      -1.0000    fix difference up-down

 DOS related values:
   EMIN   =  10.00;   EMAX   =-10.00  energy-range for DOS
   EFERMI =   0.00
   ISMEAR =    -5;   SIGMA  =   0.10  broadening in eV -4-tet -1-fermi 0-gaus

 Electronic relaxation 2 (details)
   IALGO  =     68    algorithm
   LDIAG  =      T    sub-space diagonalisation (order eigenvalues)
   LSUBROT=      F    optimize rotation matrix (better conditioning)
   TURBO    =      0    0=normal 1=particle mesh
   IRESTART =      0    0=no restart 2=restart with 2 vectors
   NREBOOT  =      0    no. of reboots
   NMIN     =      0    reboot dimension
   EREF     =   0.00    reference energy to select bands
   IMIX   =      4    mixing-type and parameters
     AMIX     =   0.40;   BMIX     =  1.00
     AMIX_MAG =   1.60;   BMIX_MAG =  1.00
     AMIN     =   0.10
     WC   =   100.;   INIMIX=   1;  MIXPRE=   1;  MAXMIX= -45

 Intra band minimization:
   WEIMIN = 0.0000     energy-eigenvalue tresh-hold
   EBREAK =  0.98E-08  absolut break condition
   DEPER  =   0.30     relativ break condition  

   TIME   =   0.40     timestep for ELM

  volume/ion in A,a.u.               =      46.10       311.12
  Fermi-wavevector in a.u.,A,eV,Ry     =   1.003916  1.897126 13.712590  1.007847
  Thomas-Fermi vector in A             =   2.136498
 
 Write flags
   LWAVE        =      F    write WAVECAR
   LDOWNSAMPLE  =      F    k-point downsampling of WAVECAR
   LCHARG       =      F    write CHGCAR
   LVTOT        =      F    write LOCPOT, total local potential
   LVHAR        =      F    write LOCPOT, Hartree potential only
   LELF         =      F    write electronic localiz. function (ELF)
   LORBIT       =     10    0 simple, 1 ext, 2 COOP (PROOUT), +10 PAW based schemes


 Dipole corrections
   LMONO  =      F    monopole corrections only (constant potential shift)
   LDIPOL =      F    correct potential (dipole corrections)
   IDIPOL =      0    1-x, 2-y, 3-z, 4-all directions 
   EPSILON=  1.0000000 bulk dielectric constant

 Exchange correlation treatment:
   GGA     =    --    GGA type
   LEXCH   =     8    internal setting for exchange type
   VOSKOWN=      0    Vosko Wilk Nusair interpolation
   LHFCALC =     F    Hartree Fock is set to
   LHFONE  =     F    Hartree Fock one center treatment
   AEXX    =    0.0000 exact exchange contribution

 Linear response parameters
   LEPSILON=     F    determine dielectric tensor
   LRPA    =     F    only Hartree local field effects (RPA)
   LNABLA  =     F    use nabla operator in PAW spheres
   LVEL    =     F    velocity operator in full k-point grid
   LINTERFAST=   F  fast interpolation
   KINTER  =     0    interpolate to denser k-point grid
   CSHIFT  =0.1000    complex shift for real part using Kramers Kronig
   OMEGAMAX=  -1.0    maximum frequency
   DEG_THRESHOLD= 0.2000000E-02 threshold for treating states as degnerate
   RTIME   =   -0.100 relaxation time in fs
  (WPLASMAI=    0.000 imaginary part of plasma frequency in eV, 0.658/RTIME)
   DFIELD  = 0.0000000 0.0000000 0.0000000 field for delta impulse in time
 
 Orbital magnetization related:
   ORBITALMAG=     F  switch on orbital magnetization
   LCHIMAG   =     F  perturbation theory with respect to B field
   DQ        =  0.001000  dq finite difference perturbation B field
   LLRAUG    =     F  two centre corrections for induced B field



--------------------------------------------------------------------------------------------------------


 Static calculation
 charge density and potential remain constant during run
 non-spin polarized calculation
 RMM-DIIS sequential band-by-band and
  variant of blocked Davidson during initial phase
 perform sub-space diagonalisation
    before iterative eigenvector-optimisation
 no mixing
 using additional bands           54
 real space projection scheme for non local part
 use partial core corrections
 calculate Harris-corrections to forces 
   (improved forces if not selfconsistent)
 use gradient corrections 
 WARNING: stress and forces are not correct
  (second derivative of E(xc) not defined)
 use of overlap-Matrix (Vanderbilt PP)
 Fermi weights with tetrahedron method with Bloechl corrections


--------------------------------------------------------------------------------------------------------


  energy-cutoff  :      500.00
  volume of cell :     1751.92
      direct lattice vectors                 reciprocal lattice vectors
     8.813512802  0.000000000  0.000000000     0.113462137 -0.065507406  0.000000000
     4.406756909  7.632725690  0.000000000     0.000000000  0.131014796  0.000000000
     0.000000000  0.000000000 26.042657710     0.000000000  0.000000000  0.038398539

  length of vectors
     8.813512802  8.813512802 26.042657710     0.131014796  0.131014796  0.038398539


 
 k-points in units of 2pi/SCALE and weight: Automatic mesh                          
   0.00000000  0.00000000  0.00000000       0.016
   0.01418277 -0.00818843  0.00000000       0.062
   0.00000000  0.01637685  0.00000000       0.031
   0.02836553 -0.01637685  0.00000000       0.062
   0.00000000  0.03275370  0.00000000       0.031
   0.04254830 -0.02456528  0.00000000       0.062
   0.00000000  0.04913055  0.00000000       0.031
   0.05673107 -0.03275370  0.00000000       0.031
   0.00000000  0.06550740  0.00000000       0.016
   0.02836553 -0.00000000  0.00000000       0.031
   0.01418277  0.02456527  0.00000000       0.062
   0.04254830 -0.00818843  0.00000000       0.062
   0.02836553  0.03275370  0.00000000       0.062
  -0.01418277  0.04094212  0.00000000       0.062
   0.05673107 -0.01637685  0.00000000       0.062
   0.04254830  0.04094212  0.00000000       0.062
  -0.01418277  0.05731897  0.00000000       0.062
   0.05673107 -0.00000000  0.00000000       0.031
   0.02836553  0.04913055  0.00000000       0.062
  -0.04254830  0.05731898  0.00000000       0.062
  -0.02836553  0.06550740  0.00000000       0.031
 
 k-points in reciprocal lattice and weights: Automatic mesh                          
   0.00000000  0.00000000  0.00000000       0.016
   0.12500000 -0.00000000  0.00000000       0.062
   0.00000000  0.12500000  0.00000000       0.031
   0.25000000 -0.00000000  0.00000000       0.062
   0.00000000  0.25000000  0.00000000       0.031
   0.37500000 -0.00000000  0.00000000       0.062
   0.00000000  0.37500000  0.00000000       0.031
   0.50000000 -0.00000000  0.00000000       0.031
   0.00000000  0.50000000  0.00000000       0.016
   0.25000000  0.12500000  0.00000000       0.031
   0.12500000  0.25000000  0.00000000       0.062
   0.37500000  0.12500000  0.00000000       0.062
   0.25000000  0.37500000  0.00000000       0.062
  -0.12500000  0.25000000  0.00000000       0.062
   0.50000000  0.12500000  0.00000000       0.062
   0.37500000  0.50000000  0.00000000       0.062
  -0.12500000  0.37500000  0.00000000       0.062
   0.50000000  0.25000000  0.00000000       0.031
   0.25000000  0.50000000  0.00000000       0.062
  -0.37500000  0.25000000  0.00000000       0.062
  -0.25000000  0.37500000  0.00000000       0.031
 
 position of ions in fractional coordinates (direct lattice) 
   0.00000000  0.00000000  0.20275887
   0.33333334  0.00000000  0.20275887
   0.66666669  0.00000000  0.20275887
   0.00000000  0.33333334  0.20275887
   0.33333331  0.33333334  0.20275887
   0.66666669  0.33333334  0.20275887
   0.00000000  0.66666669  0.20275887
   0.33333334  0.66666669  0.20275887
   0.66666663  0.66666669  0.20275887
   0.11111112  0.11111111  0.29486676
   0.44444442  0.11111111  0.29486676
   0.77777779  0.11111111  0.29486676
   0.11111113  0.44444445  0.29486676
   0.44444448  0.44444445  0.29486676
   0.77777773  0.44444445  0.29486676
   0.11111109  0.77777779  0.29486676
   0.44444445  0.77777779  0.29486676
   0.77777785  0.77777779  0.29486676
   0.88894927  0.22210148  0.38673958
   0.22321714  0.22321712  0.38593422
   0.55356579  0.22321712  0.38593422
   0.88697291  0.55651358  0.38616421
   0.22321709  0.55356579  0.38593422
   0.55651358  0.55651358  0.38616421
   0.88894927  0.88894927  0.38673958
   0.22210151  0.88894927  0.38673958
   0.55651352  0.88697291  0.38616421
   0.00000000  0.00000000  0.47908498
   0.33350613  0.00841636  0.47828400
   0.65807753  0.00841636  0.47828400
   0.00841636  0.33350613  0.47828400
   0.65807753  0.33350613  0.47828400
   0.00841636  0.65807753  0.47828400
   0.33350613  0.65807753  0.47828400
   0.66666663  0.66666669  0.47962785
   0.33333331  0.33333334  0.46657794
   0.27272590  0.32817657  0.62678101
   0.39909749  0.32817657  0.62678101
 
 position of ions in cartesian coordinates  (Angst):
   0.00000000  0.00000000  5.28037993
   2.93783769  0.00000000  5.28037993
   5.87567538  0.00000000  5.28037993
   1.46891901  2.54424197  5.28037993
   4.40675643  2.54424197  5.28037993
   7.34459439  2.54424197  5.28037993
   2.93783803  5.08848395  5.28037993
   5.87567571  5.08848395  5.28037993
   8.81351288  5.08848395  5.28037993
   1.46891893  0.84808064  7.67911405
   4.40675623  0.84808064  7.67911405
   7.34459418  0.84808064  7.67911405
   2.93783798  3.39232256  7.67911405
   5.87567574  3.39232256  7.67911405
   8.81351263  3.39232256  7.67911405
   4.40675667  5.93656453  7.67911405
   7.34459449  5.93656453  7.67911405
  10.28243270  5.93656453  7.67911405
   8.81351299  1.69523968 10.07172640
   2.95099067  1.70375505 10.05075287
   5.86252275  1.70375505 10.05075287
  10.26976713  4.24771547 10.05674227
   4.40675655  4.22521581 10.05075287
   7.35725957  4.24771547 10.05674227
  11.75214908  6.78510591 10.07172640
   5.87487783  6.78510591 10.07172640
   8.81351299  6.77002090 10.05674227
   0.00000000  0.00000000 12.47664615
   2.97644944  0.06423979 12.45578638
   5.83706363  0.06423979 12.45578638
   1.54385818  2.54556083 12.45578638
   7.26965522  2.54556083 12.45578638
   2.97416544  5.02292529 12.45578638
   5.83934829  5.02292529 12.45578638
   8.81351288  5.08848395 12.49078397
   4.40675643  2.54424197 12.15092953
   3.84986761  2.50488175 16.32304337
   4.96364525  2.50488175 16.32304337
 


--------------------------------------------------------------------------------------------------------


 k-point   1 :   0.0000 0.0000 0.0000  plane waves:   44417
 k-point   2 :   0.1250-0.0000 0.0000  plane waves:   44396
 k-point   3 :   0.0000 0.1250 0.0000  plane waves:   44396
 k-point   4 :   0.2500-0.0000 0.0000  plane waves:   44464
 k-point   5 :   0.0000 0.2500 0.0000  plane waves:   44464
 k-point   6 :   0.3750-0.0000 0.0000  plane waves:   44540
 k-point   7 :   0.0000 0.3750 0.0000  plane waves:   44540
 k-point   8 :   0.5000-0.0000 0.0000  plane waves:   44476
 k-point   9 :   0.0000 0.5000 0.0000  plane waves:   44476
 k-point  10 :   0.2500 0.1250 0.0000  plane waves:   44418
 k-point  11 :   0.1250 0.2500 0.0000  plane waves:   44418
 k-point  12 :   0.3750 0.1250 0.0000  plane waves:   44492
 k-point  13 :   0.2500 0.3750 0.0000  plane waves:   44492
 k-point  14 :  -0.1250 0.2500 0.0000  plane waves:   44492
 k-point  15 :   0.5000 0.1250 0.0000  plane waves:   44512
 k-point  16 :   0.3750 0.5000 0.0000  plane waves:   44512
 k-point  17 :  -0.1250 0.3750 0.0000  plane waves:   44512
 k-point  18 :   0.5000 0.2500 0.0000  plane waves:   44494
 k-point  19 :   0.2500 0.5000 0.0000  plane waves:   44494
 k-point  20 :  -0.3750 0.2500 0.0000  plane waves:   44470
 k-point  21 :  -0.2500 0.3750 0.0000  plane waves:   44470

 maximum and minimum number of plane-waves per node :     44540    44396

 maximum number of plane-waves:     44540
 maximum index in each direction: 
   IXMAX=   16   IYMAX=   16   IZMAX=   47
   IXMIN=  -16   IYMIN=  -16   IZMIN=  -47


 serial   3D FFT for wavefunctions
 parallel 3D FFT for charge:
    minimum data exchange during FFTs selected (reduces bandwidth)


 total amount of memory used by VASP MPI-rank0   317957. kBytes
=======================================================================

   base      :      30000. kBytes
   nonlr-proj:      13365. kBytes
   fftplans  :       6941. kBytes
   grid      :      23980. kBytes
   one-center:        590. kBytes
   wavefun   :     243081. kBytes
 
     INWAV:  cpu time    0.0000: real time    0.0000
 initial charge density was supplied:
 number of electron     404.0000080 magnetization 
 keeping initial charge density in first step


--------------------------------------------------------------------------------------------------------


 Maximum index for non-local projection operator         2097
 Maximum index for augmentation-charges          775 (set IRDMAX)


--------------------------------------------------------------------------------------------------------


 First call to EWALD:  gamma=   0.147
 Maximum number of real-space cells 4x 4x 2
 Maximum number of reciprocal cells 2x 2x 5

    FEWALD:  cpu time    0.0013: real time    0.0014


--------------------------------------- Iteration      1(   1)  ---------------------------------------


    POTLOK:  cpu time    0.0653: real time    0.0655
    SETDIJ:  cpu time    0.0062: real time    0.0063
     EDDAV:  cpu time   22.7428: real time   22.7436
 BZINTS: Fermi energy:   10.497419;  404.000000 electrons
         Band energy: 0.129909E+04;  BLOECHL correction:   -0.018158
       DOS:  cpu time    0.0305: real time    0.0305
    --------------------------------------------
      LOOP:  cpu time   22.8447: real time   22.8459

 eigenvalue-minimisations  : 10752
 total energy-change (2. order) : 0.2752108E+04  (-0.1771896E+05)
 number of electron     404.0000080 magnetization 
 augmentation part      404.0000080 magnetization 

 Free energy of the ion-electron system (eV)
  ---------------------------------------------------
  alpha Z        PSCENC =       875.45035705
  Ewald energy   TEWEN  =    151141.67308760
  -Hartree energ DENC   =   -185565.74291872
  -exchange      EXHF   =         0.00000000
  -V(xc)+E(xc)   XCENC  =       572.07164052
  PAW double counting   =     36931.28736080   -36257.04443908
  entropy T*S    EENTRO =         0.00000000
  eigenvalues    EBANDS =      1299.09251224
  atomic energy  EATOM  =     33755.32008341
  Solvation  Ediel_sol  =         0.00000000
  ---------------------------------------------------
  free energy    TOTEN  =      2752.10768380 eV

  energy without entropy =     2752.10768380  energy(sigma->0) =     2752.10768380


--------------------------------------------------------------------------------------------------------




--------------------------------------- Iteration      1(   2)  ---------------------------------------


     EDDAV:  cpu time   24.9208: real time   24.9213
 BZINTS: Fermi energy:    0.775194;  404.000000 electrons
         Band energy:-0.140888E+04;  BLOECHL correction:   -0.040568
       DOS:  cpu time    0.0292: real time    0.0292
    --------------------------------------------
      LOOP:  cpu time   24.9500: real time   24.9505

 eigenvalue-minimisations  : 12112
 total energy-change (2. order) :-0.2707970E+04  (-0.2499293E+04)
 number of electron     404.0000080 magnetization 
 augmentation part      404.0000080 magnetization 

 Free energy of the ion-electron system (eV)
  ---------------------------------------------------
  alpha Z        PSCENC =       875.45035705
  Ewald energy   TEWEN  =    151141.67308760
  -Hartree energ DENC   =   -185565.74291872
  -exchange      EXHF   =         0.00000000
  -V(xc)+E(xc)   XCENC  =       572.07164052
  PAW double counting   =     36931.28736080   -36257.04443908
  entropy T*S    EENTRO =         0.00000000
  eigenvalues    EBANDS =     -1408.87726853
  atomic energy  EATOM  =     33755.32008341
  Solvation  Ediel_sol  =         0.00000000
  ---------------------------------------------------
  free energy    TOTEN  =        44.13790303 eV

  energy without entropy =       44.13790303  energy(sigma->0) =       44.13790303


--------------------------------------------------------------------------------------------------------




--------------------------------------- Iteration      1(   3)  ---------------------------------------


     EDDAV:  cpu time   25.3433: real time   25.3435
 BZINTS: Fermi energy:   -0.094862;  404.000000 electrons
         Band energy:-0.157780E+04;  BLOECHL correction:   -0.076400
       DOS:  cpu time    0.0308: real time    0.0308
    --------------------------------------------
      LOOP:  cpu time   25.3741: real time   25.3743

 eigenvalue-minimisations  : 12352
 total energy-change (2. order) :-0.1689209E+03  (-0.1635986E+03)
 number of electron     404.0000080 magnetization 
 augmentation part      404.0000080 magnetization 

 Free energy of the ion-electron system (eV)
  ---------------------------------------------------
  alpha Z        PSCENC =       875.45035705
  Ewald energy   TEWEN  =    151141.67308760
  -Hartree energ DENC   =   -185565.74291872
  -exchange      EXHF   =         0.00000000
  -V(xc)+E(xc)   XCENC  =       572.07164052
  PAW double counting   =     36931.28736080   -36257.04443908
  entropy T*S    EENTRO =         0.00000000
  eigenvalues    EBANDS =     -1577.79820765
  atomic energy  EATOM  =     33755.32008341
  Solvation  Ediel_sol  =         0.00000000
  ---------------------------------------------------
  free energy    TOTEN  =      -124.78303609 eV

  energy without entropy =     -124.78303609  energy(sigma->0) =     -124.78303609


--------------------------------------------------------------------------------------------------------




--------------------------------------- Iteration      1(   4)  ---------------------------------------


     EDDAV:  cpu time   24.9208: real time   24.9210
 BZINTS: Fermi energy:   -0.120105;  404.000000 electrons
         Band energy:-0.158160E+04;  BLOECHL correction:   -0.074886
       DOS:  cpu time    0.0304: real time    0.0304
    --------------------------------------------
      LOOP:  cpu time   24.9513: real time   24.9514

 eigenvalue-minimisations  : 12112
 total energy-change (2. order) :-0.3801258E+01  (-0.3774954E+01)
 number of electron     404.0000080 magnetization 
 augmentation part      404.0000080 magnetization 

 Free energy of the ion-electron system (eV)
  ---------------------------------------------------
  alpha Z        PSCENC =       875.45035705
  Ewald energy   TEWEN  =    151141.67308760
  -Hartree energ DENC   =   -185565.74291872
  -exchange      EXHF   =         0.00000000
  -V(xc)+E(xc)   XCENC  =       572.07164052
  PAW double counting   =     36931.28736080   -36257.04443908
  entropy T*S    EENTRO =         0.00000000
  eigenvalues    EBANDS =     -1581.59946549
  atomic energy  EATOM  =     33755.32008341
  Solvation  Ediel_sol  =         0.00000000
  ---------------------------------------------------
  free energy    TOTEN  =      -128.58429393 eV

  energy without entropy =     -128.58429393  energy(sigma->0) =     -128.58429393


--------------------------------------------------------------------------------------------------------




--------------------------------------- Iteration      1(   5)  ---------------------------------------


     EDDAV:  cpu time   26.1362: real time   26.1366
 BZINTS: Fermi energy:   -0.120814;  404.000000 electrons
         Band energy:-0.158173E+04;  BLOECHL correction:   -0.074809
       DOS:  cpu time    0.0278: real time    0.0278
    --------------------------------------------
      LOOP:  cpu time   26.1640: real time   26.1643

 eigenvalue-minimisations  : 12848
 total energy-change (2. order) :-0.1297040E+00  (-0.1296422E+00)
 number of electron     404.0000080 magnetization 
 augmentation part      404.0000080 magnetization 

 Free energy of the ion-electron system (eV)
  ---------------------------------------------------
  alpha Z        PSCENC =       875.45035705
  Ewald energy   TEWEN  =    151141.67308760
  -Hartree energ DENC   =   -185565.74291872
  -exchange      EXHF   =         0.00000000
  -V(xc)+E(xc)   XCENC  =       572.07164052
  PAW double counting   =     36931.28736080   -36257.04443908
  entropy T*S    EENTRO =         0.00000000
  eigenvalues    EBANDS =     -1581.72916945
  atomic energy  EATOM  =     33755.32008341
  Solvation  Ediel_sol  =         0.00000000
  ---------------------------------------------------
  free energy    TOTEN  =      -128.71399789 eV

  energy without entropy =     -128.71399789  energy(sigma->0) =     -128.71399789


--------------------------------------------------------------------------------------------------------




--------------------------------------- Iteration      1(   6)  ---------------------------------------


    EDDIAG:  cpu time    4.2032: real time    4.2034
  RMM-DIIS:  cpu time   11.7885: real time   11.7886
    ORTHCH:  cpu time    0.9528: real time    0.9528
 BZINTS: Fermi energy:   -0.120839;  404.000000 electrons
         Band energy:-0.158173E+04;  BLOECHL correction:   -0.074807
       DOS:  cpu time    0.0310: real time    0.0310
    --------------------------------------------
      LOOP:  cpu time   16.9755: real time   16.9757

 eigenvalue-minimisations  : 11117
 total energy-change (2. order) :-0.3300823E-02  (-0.3301900E-02)
 number of electron     404.0000080 magnetization 
 augmentation part      404.0000080 magnetization 

 Free energy of the ion-electron system (eV)
  ---------------------------------------------------
  alpha Z        PSCENC =       875.45035705
  Ewald energy   TEWEN  =    151141.67308760
  -Hartree energ DENC   =   -185565.74291872
  -exchange      EXHF   =         0.00000000
  -V(xc)+E(xc)   XCENC  =       572.07164052
  PAW double counting   =     36931.28736080   -36257.04443908
  entropy T*S    EENTRO =         0.00000000
  eigenvalues    EBANDS =     -1581.73247027
  atomic energy  EATOM  =     33755.32008341
  Solvation  Ediel_sol  =         0.00000000
  ---------------------------------------------------
  free energy    TOTEN  =      -128.71729872 eV

  energy without entropy =     -128.71729872  energy(sigma->0) =     -128.71729872


--------------------------------------------------------------------------------------------------------




--------------------------------------- Iteration      1(   7)  ---------------------------------------


    EDDIAG:  cpu time    4.1987: real time    4.1988
  RMM-DIIS:  cpu time   16.6990: real time   16.6991
    ORTHCH:  cpu time    0.9528: real time    0.9528
 BZINTS: Fermi energy:   -0.120847;  404.000000 electrons
         Band energy:-0.158173E+04;  BLOECHL correction:   -0.074806
       DOS:  cpu time    0.0310: real time    0.0310
    --------------------------------------------
      LOOP:  cpu time   21.8814: real time   21.8817

 eigenvalue-minimisations  : 16209
 total energy-change (2. order) :-0.1255650E-02  (-0.1236153E-02)
 number of electron     404.0000080 magnetization 
 augmentation part      404.0000080 magnetization 

 Free energy of the ion-electron system (eV)
  ---------------------------------------------------
  alpha Z        PSCENC =       875.45035705
  Ewald energy   TEWEN  =    151141.67308760
  -Hartree energ DENC   =   -185565.74291872
  -exchange      EXHF   =         0.00000000
  -V(xc)+E(xc)   XCENC  =       572.07164052
  PAW double counting   =     36931.28736080   -36257.04443908
  entropy T*S    EENTRO =         0.00000000
  eigenvalues    EBANDS =     -1581.73372592
  atomic energy  EATOM  =     33755.32008341
  Solvation  Ediel_sol  =         0.00000000
  ---------------------------------------------------
  free energy    TOTEN  =      -128.71855437 eV

  energy without entropy =     -128.71855437  energy(sigma->0) =     -128.71855437


--------------------------------------------------------------------------------------------------------




--------------------------------------- Iteration      1(   8)  ---------------------------------------


    EDDIAG:  cpu time    4.2005: real time    4.2006
  RMM-DIIS:  cpu time   13.1740: real time   13.1741
    ORTHCH:  cpu time    0.9522: real time    0.9523
 BZINTS: Fermi energy:   -0.120847;  404.000000 electrons
         Band energy:-0.158173E+04;  BLOECHL correction:   -0.074806
       DOS:  cpu time    0.0271: real time    0.0271
    --------------------------------------------
      LOOP:  cpu time   18.3540: real time   18.3542

 eigenvalue-minimisations  : 12603
 total energy-change (2. order) :-0.7935514E-04  (-0.7790329E-04)
 number of electron     404.0000080 magnetization 
 augmentation part      404.0000080 magnetization 

 Free energy of the ion-electron system (eV)
  ---------------------------------------------------
  alpha Z        PSCENC =       875.45035705
  Ewald energy   TEWEN  =    151141.67308760
  -Hartree energ DENC   =   -185565.74291872
  -exchange      EXHF   =         0.00000000
  -V(xc)+E(xc)   XCENC  =       572.07164052
  PAW double counting   =     36931.28736080   -36257.04443908
  entropy T*S    EENTRO =         0.00000000
  eigenvalues    EBANDS =     -1581.73380528
  atomic energy  EATOM  =     33755.32008341
  Solvation  Ediel_sol  =         0.00000000
  ---------------------------------------------------
  free energy    TOTEN  =      -128.71863372 eV

  energy without entropy =     -128.71863372  energy(sigma->0) =     -128.71863372


--------------------------------------------------------------------------------------------------------




--------------------------------------- Iteration      1(   9)  ---------------------------------------


    EDDIAG:  cpu time    4.2041: real time    4.2042
  RMM-DIIS:  cpu time   13.5140: real time   13.5141
    ORTHCH:  cpu time    0.9534: real time    0.9534
 BZINTS: Fermi energy:   -0.120848;  404.000000 electrons
         Band energy:-0.158173E+04;  BLOECHL correction:   -0.074806
       DOS:  cpu time    0.0284: real time    0.0284
    --------------------------------------------
      LOOP:  cpu time   18.6998: real time   18.7000

 eigenvalue-minimisations  : 12525
 total energy-change (2. order) :-0.2166216E-04  (-0.2149133E-04)
 number of electron     404.0000080 magnetization 
 augmentation part      404.0000080 magnetization 

 Free energy of the ion-electron system (eV)
  ---------------------------------------------------
  alpha Z        PSCENC =       875.45035705
  Ewald energy   TEWEN  =    151141.67308760
  -Hartree energ DENC   =   -185565.74291872
  -exchange      EXHF   =         0.00000000
  -V(xc)+E(xc)   XCENC  =       572.07164052
  PAW double counting   =     36931.28736080   -36257.04443908
  entropy T*S    EENTRO =         0.00000000
  eigenvalues    EBANDS =     -1581.73382694
  atomic energy  EATOM  =     33755.32008341
  Solvation  Ediel_sol  =         0.00000000
  ---------------------------------------------------
  free energy    TOTEN  =      -128.71865538 eV

  energy without entropy =     -128.71865538  energy(sigma->0) =     -128.71865538


--------------------------------------------------------------------------------------------------------




--------------------------------------- Iteration      1(  10)  ---------------------------------------


    EDDIAG:  cpu time    4.1989: real time    4.2022
  RMM-DIIS:  cpu time    8.7306: real time    8.7307
    ORTHCH:  cpu time    0.9539: real time    0.9539
 BZINTS: Fermi energy:   -0.120848;  404.000000 electrons
         Band energy:-0.158173E+04;  BLOECHL correction:   -0.074806
       DOS:  cpu time    0.0310: real time    0.0310
    --------------------------------------------
      LOOP:  cpu time   13.9144: real time   13.9178

 eigenvalue-minimisations  :  7416
 total energy-change (2. order) :-0.1682783E-05  (-0.1729776E-05)
 number of electron     404.0000080 magnetization 
 augmentation part      404.0000080 magnetization 

 Free energy of the ion-electron system (eV)
  ---------------------------------------------------
  alpha Z        PSCENC =       875.45035705
  Ewald energy   TEWEN  =    151141.67308760
  -Hartree energ DENC   =   -185565.74291872
  -exchange      EXHF   =         0.00000000
  -V(xc)+E(xc)   XCENC  =       572.07164052
  PAW double counting   =     36931.28736080   -36257.04443908
  entropy T*S    EENTRO =         0.00000000
  eigenvalues    EBANDS =     -1581.73382862
  atomic energy  EATOM  =     33755.32008341
  Solvation  Ediel_sol  =         0.00000000
  ---------------------------------------------------
  free energy    TOTEN  =      -128.71865707 eV

  energy without entropy =     -128.71865707  energy(sigma->0) =     -128.71865707


--------------------------------------------------------------------------------------------------------




 average (electrostatic) potential at core
  the test charge radii are     1.2098  1.0452  0.7089
  (the norm of the test charge is              1.0000)
       1 -73.1597       2 -73.1353       3 -73.1353       4 -73.1353       5 -73.1465
       6 -73.1351       7 -73.1352       8 -73.1350       9 -73.1346      10 -73.4974
      11 -73.4695      12 -73.4973      13 -73.4695      14 -73.4691      15 -73.4858
      16 -73.4972      17 -73.4856      18 -73.4858      19 -73.4287      20 -73.5102
      21 -73.5101      22 -73.4559      23 -73.5102      24 -73.4556      25 -73.4288
      26 -73.4285      27 -73.4557      28 -73.0612      29 -73.0797      30 -73.0798
      31 -73.0775      32 -73.0773      33 -73.0797      34 -73.0794      35 -73.0427
      36 -87.7673      37 -71.0949      38 -71.0949
 
 
 
 E-fermi :  -0.1208     XC(G=0):  -5.3947     alpha+bet : -4.9528

 Fermi energy:        -0.1208475313

 k-point     1 :       0.0000    0.0000    0.0000
  band No.  band energies     occupation 
      1     -23.1061      2.00000
      2      -8.9321      2.00000
      3      -8.4686      2.00000
      4      -7.7376      2.00000
      5      -6.8013      2.00000
      6      -6.7819      2.00000
      7      -6.7744      2.00000
      8      -6.7742      2.00000
      9      -6.7660      2.00000
     10      -6.7450      2.00000
     11      -6.7449      2.00000
     12      -6.6104      2.00000
     13      -6.4754      2.00000
     14      -6.4660      2.00000
     15      -6.2970      2.00000
     16      -6.2804      2.00000
     17      -6.2804      2.00000
     18      -6.2621      2.00000
     19      -6.2550      2.00000
     20      -6.2549      2.00000
     21      -5.9038      2.00000
     22      -5.9037      2.00000
     23      -5.8921      2.00000
     24      -5.8777      2.00000
     25      -5.8593      2.00000
     26      -5.8592      2.00000
     27      -5.7236      2.00000
     28      -5.7234      2.00000
     29      -5.7200      2.00000
     30      -5.6961      2.00000
     31      -5.6909      2.00000
     32      -5.6908      2.00000
     33      -5.5659      2.00000
     34      -5.5659      2.00000
     35      -5.5444      2.00000
     36      -5.5437      2.00000
     37      -5.5436      2.00000
     38      -5.5203      2.00000
     39      -5.5171      2.00000
     40      -5.5169      2.00000
     41      -5.5127      2.00000
     42      -5.3861      2.00000
     43      -5.3349      2.00000
     44      -5.3349      2.00000
     45      -5.0998      2.00000
     46      -5.0546      2.00000
     47      -5.0546      2.00000
     48      -5.0142      2.00000
     49      -4.9911      2.00000
     50      -4.9911      2.00000
     51      -4.9728      2.00000
     52      -4.9705      2.00000
     53      -4.9704      2.00000
     54      -4.9120      2.00000
     55      -4.9119      2.00000
     56      -4.9007      2.00000
     57      -4.8888      2.00000
     58      -4.8412      2.00000
     59      -4.8207      2.00000
     60      -4.4586      2.00000
     61      -4.4566      2.00000
     62      -4.4323      2.00000
     63      -4.4322      2.00000
     64      -4.4289      2.00000
     65      -4.4168      2.00000
     66      -4.4168      2.00000
     67      -4.3880      2.00000
     68      -4.3880      2.00000
     69      -4.3340      2.00000
     70      -4.3340      2.00000
     71      -4.2826      2.00000
     72      -4.2826      2.00000
     73      -4.2772      2.00000
     74      -4.2285      2.00000
     75      -4.2202      2.00000
     76      -4.2201      2.00000
     77      -4.2051      2.00000
     78      -4.1892      2.00000
     79      -4.1890      2.00000
     80      -4.1818      2.00000
     81      -4.1810      2.00000
     82      -4.1809      2.00000
     83      -4.1612      2.00000
     84      -4.1610      2.00000
     85      -4.1252      2.00000
     86      -4.1250      2.00000
     87      -4.1098      2.00000
     88      -4.0701      2.00000
     89      -4.0700      2.00000
     90      -4.0622      2.00000
     91      -4.0409      2.00000
     92      -4.0408      2.00000
     93      -3.9664      2.00000
     94      -3.9663      2.00000
     95      -3.9650      2.00000
     96      -3.7865      2.00000
     97      -3.7865      2.00000
     98      -3.7798      2.00000
     99      -3.7798      2.00000
    100      -3.7693      2.00000
    101      -3.7693      2.00000
    102      -3.6388      2.00000
    103      -3.6385      2.00000
    104      -3.5955      2.00000
    105      -3.5860      2.00000
    106      -3.5856      2.00000
    107      -3.5397      2.00000
    108      -3.5314      2.00000
    109      -3.5312      2.00000
    110      -3.3980      2.00000
    111      -3.3729      2.00000
    112      -3.3729      2.00000
    113      -3.3602      2.00000
    114      -3.3600      2.00000
    115      -3.3572      2.00000
    116      -3.3508      2.00000
    117      -3.2588      2.00000
    118      -3.2587      2.00000
    119      -3.2489      2.00000
    120      -3.2488      2.00000
    121      -3.1255      2.00000
    122      -3.0858      2.00000
    123      -3.0858      2.00000
    124      -3.0692      2.00000
    125      -3.0692      2.00000
    126      -3.0559      2.00000
    127      -3.0175      2.00000
    128      -3.0175      2.00000
    129      -2.9838      2.00000
    130      -2.9838      2.00000
    131      -2.9287      2.00000
    132      -2.9285      2.00000
    133      -2.8312      2.00000
    134      -2.8311      2.00000
    135      -2.8246      2.00000
    136      -2.8126      2.00000
    137      -2.8124      2.00000
    138      -2.8087      2.00000
    139      -2.7972      2.00000
    140      -2.7961      2.00000
    141      -2.7959      2.00000
    142      -2.7339      2.00000
    143      -2.7338      2.00000
    144      -2.6752      2.00000
    145      -2.6479      2.00000
    146      -2.6478      2.00000
    147      -2.5684      2.00000
    148      -2.5554      2.00000
    149      -2.5552      2.00000
    150      -2.5400      2.00000
    151      -2.5400      2.00000
    152      -2.5298      2.00000
    153      -2.5297      2.00000
    154      -2.5142      2.00000
    155      -2.4961      2.00000
    156      -2.4919      2.00000
    157      -2.4918      2.00000
    158      -2.4888      2.00000
    159      -2.3757      2.00000
    160      -2.3617      2.00000
    161      -2.3583      2.00000
    162      -2.3583      2.00000
    163      -2.3488      2.00000
    164      -2.3365      2.00000
    165      -2.3364      2.00000
    166      -2.3350      2.00000
    167      -2.3019      2.00000
    168      -2.3019      2.00000
    169      -2.2876      2.00000
    170      -2.2875      2.00000
    171      -2.2749      2.00000
    172      -2.2747      2.00000
    173      -2.2561      2.00000
    174      -2.2561      2.00000
    175      -2.2396      2.00000
    176      -2.2375      2.00000
    177      -2.2358      2.00000
    178      -2.2358      2.00000
    179      -2.2332      2.00000
    180      -2.1890      2.00000
    181      -2.1814      2.00000
    182      -2.1676      2.00000
    183      -2.1676      2.00000
    184      -2.1604      2.00000
    185      -2.1336      2.00000
    186      -2.1335      2.00000
    187      -2.0930      2.00000
    188      -2.0545      2.00000
    189      -2.0544      2.00000
    190      -1.9703      2.00000
    191      -1.9701      2.00000
    192      -1.9287      2.00000
    193      -1.9287      2.00000
    194      -1.9063      2.00000
    195      -1.8841      2.00000
    196      -1.1043      2.00000
    197      -0.7952      2.00000
    198      -0.7511      2.00000
    199      -0.7504      2.00000
    200      -0.6532      2.00000
    201      -0.6523      2.00000
    202      -0.6373      2.00000
    203      -0.3649      2.00000
    204      -0.3647      2.00000
    205      -0.2934      2.00000
    206      -0.2934      2.00000
    207      -0.0889      0.00000
    208       0.3185      0.00000
    209       1.4894      0.00000
    210       1.5366      0.00000
    211       1.5400      0.00000
    212       1.5875      0.00000
    213       1.5911      0.00000
    214       1.6334      0.00000
    215       2.6664      0.00000
    216       2.6666      0.00000
    217       2.6943      0.00000
    218       2.6951      0.00000
    219       2.7569      0.00000
    220       2.8253      0.00000
    221       2.9183      0.00000
    222       2.9199      0.00000
    223       3.3620      0.00000
    224       3.6053      0.00000
    225       4.4587      0.00000
    226       4.4910      0.00000
    227       4.5224      0.00000
    228       4.5490      0.00000
    229       4.5991      0.00000
    230       4.6078      0.00000
    231       4.6339      0.00000
    232       4.6404      0.00000
    233       4.6674      0.00000
    234       4.6781      0.00000
    235       4.6988      0.00000
    236       4.7930      0.00000
    237       5.3855      0.00000
    238       5.4104      0.00000
    239       5.5500      0.00000
    240       5.6616      0.00000
    241       6.1598      0.00000
    242       6.1752      0.00000
    243       6.2253      0.00000
    244       6.2375      0.00000
    245       6.2680      0.00000
    246       6.2830      0.00000
    247       6.3144      0.00000
    248       6.3413      0.00000
    249       6.3568      0.00000
    250       6.3650      0.00000
    251       6.5656      0.00000
    252       6.5914      0.00000
    253       6.6128      0.00000
    254       6.6270      0.00000
    255       6.6477      0.00000
    256       6.8298      0.00000

 k-point     2 :       0.1250   -0.0000    0.0000
  band No.  band energies     occupation 
      1     -23.1061      2.00000
      2      -8.8811      2.00000
      3      -8.4686      2.00000
      4      -7.6879      2.00000
      5      -7.0207      2.00000
      6      -6.8460      2.00000
      7      -6.8368      2.00000
      8      -6.7511      2.00000
      9      -6.6589      2.00000
     10      -6.6446      2.00000
     11      -6.6306      2.00000
     12      -6.5678      2.00000
     13      -6.4740      2.00000
     14      -6.4660      2.00000
     15      -6.3189      2.00000
     16      -6.2936      2.00000
     17      -6.2639      2.00000
     18      -6.2563      2.00000
     19      -6.2341      2.00000
     20      -6.2313      2.00000
     21      -5.9520      2.00000
     22      -5.8971      2.00000
     23      -5.8967      2.00000
     24      -5.8565      2.00000
     25      -5.8366      2.00000
     26      -5.8361      2.00000
     27      -5.7846      2.00000
     28      -5.7334      2.00000
     29      -5.7299      2.00000
     30      -5.6831      2.00000
     31      -5.6637      2.00000
     32      -5.6252      2.00000
     33      -5.6216      2.00000
     34      -5.6096      2.00000
     35      -5.5976      2.00000
     36      -5.5926      2.00000
     37      -5.5158      2.00000
     38      -5.4962      2.00000
[...]
  0.000   0.000   0.000   0.000   0.000   0.000   0.000   0.000   0.000   0.000   0.000   0.000   0.000   0.000   0.000   0.000
  0.000   0.000   0.000   0.000   0.000   0.000   0.000   0.000   0.000   0.000   0.000   0.000   0.000   0.000   0.000   0.000
  0.000   0.000   0.000   0.000   0.000   0.000   0.000   0.000   0.000   0.000   1.000   0.000   0.000   0.000   0.000   0.000
  0.000   0.000   0.000   0.000   0.000   0.000   0.000   0.000   0.000   0.000   0.000   0.000   0.000   0.000   0.000   0.000
  0.000   0.000   0.000   0.000   0.000   0.000   0.000   0.000   0.000   0.000   0.000   0.000   0.000   0.000   0.000   0.000
  0.000   0.000   0.000   0.000   0.000   0.000   0.000   0.000   0.000   0.000   0.000   0.000   0.000   0.000   0.000   0.000
  0.000   0.000   0.000   0.000   0.000   0.000   0.000   0.000   0.000   0.000   0.000   0.000   0.000   0.000   0.000   0.000
  0.000   0.000   0.000   0.000   0.000   0.000   0.000   0.000   0.000   0.000   0.000   0.000   0.000   0.000   0.000   0.000
  0.000   0.000   0.000   0.000   0.000   0.000   0.000   0.000   0.000   0.000   0.000   0.000   0.000   0.000   0.000   0.000
  0.000   0.000   0.000   0.000   0.000   0.000   0.000   0.000   0.000   0.000   0.000   0.000   0.000   0.000   0.000   0.000


------------------------ aborting loop because EDIFF is reached ----------------------------------------





 total charge

# of ion       s       p       d       tot
------------------------------------------
    1        0.545   0.239   8.766   9.550
    2        0.545   0.241   8.765   9.550
    3        0.545   0.241   8.765   9.550
    4        0.545   0.241   8.765   9.550
    5        0.542   0.242   8.763   9.546
    6        0.545   0.241   8.765   9.550
    7        0.545   0.241   8.765   9.550
    8        0.545   0.241   8.765   9.550
    9        0.543   0.239   8.768   9.551
   10        0.522   0.308   8.769   9.599
   11        0.521   0.308   8.779   9.608
   12        0.522   0.308   8.769   9.599
   13        0.521   0.308   8.779   9.608
   14        0.521   0.308   8.779   9.608
   15        0.518   0.309   8.776   9.603
   16        0.522   0.308   8.769   9.599
   17        0.518   0.309   8.776   9.603
   18        0.518   0.309   8.776   9.603
   19        0.517   0.303   8.776   9.596
   20        0.539   0.328   8.757   9.624
   21        0.539   0.328   8.757   9.624
   22        0.512   0.311   8.776   9.599
   23        0.539   0.328   8.757   9.624
   24        0.512   0.311   8.776   9.599
   25        0.517   0.303   8.776   9.596
   26        0.517   0.303   8.776   9.596
   27        0.512   0.311   8.776   9.599
   28        0.539   0.226   8.768   9.533
   29        0.555   0.237   8.756   9.548
   30        0.555   0.237   8.756   9.548
   31        0.555   0.237   8.756   9.548
   32        0.555   0.237   8.756   9.548
   33        0.555   0.237   8.756   9.548
   34        0.555   0.237   8.756   9.548
   35        0.535   0.224   8.769   9.529
   36        0.316   0.224   7.257   7.796
   37        1.373   2.469   0.000   3.842
   38        1.373   2.469   0.000   3.842
--------------------------------------------------
tot         21.754  14.797 314.113 350.663
 
    CHARGE:  cpu time    0.9382: real time    0.9383
    FORLOC:  cpu time    0.0204: real time    0.0204
    FORNL :  cpu time    4.3170: real time    4.3170
    STRESS:  cpu time   12.9878: real time   12.9880
    FORCOR:  cpu time    0.0759: real time    0.0759
    FORHAR:  cpu time    0.0308: real time    0.0308
    OFIELD:  cpu time    0.0004: real time    0.0004

  FORCE on cell =-STRESS in cart. coord.  units (eV):
  Direction    XX          YY          ZZ          XY          YZ          ZX
  --------------------------------------------------------------------------------------
  Alpha Z   875.45036   875.45036   875.45036
  Ewald  174034.62754173713.70718************    -0.00032     0.51950    -0.00015
  Hartree182347.32349182233.22479************     0.00001     0.41089    -0.00004
  E(xc)   -1814.24547 -1815.48627 -1822.53757    -0.00004    -0.00001    -0.00000
  Local  ************************368394.94471     0.00252    -0.93812     0.00005
  n-local   -95.86519   -83.32514   -59.60495     4.52113     0.00167     0.29619
  augment  2523.94371  2523.63757  2539.31734    -0.00145     0.00253     0.00004
  Kinetic  5597.51286  5615.59020  5668.12300     1.09172     0.00382     0.25321
  Fock        0.00000     0.00000     0.00000     0.00000     0.00000     0.00000
  -------------------------------------------------------------------------------------
  Total     -25.56110   -25.55473     0.33131    -0.00000     0.00028     0.00000
  in kB     -23.37632   -23.37049     0.30299    -0.00000     0.00026     0.00000
  external pressure =      -15.48 kB  Pullay stress =        0.00 kB


 VOLUME and BASIS-vectors are now :
 -----------------------------------------------------------------------------
  energy-cutoff  :      500.00
  volume of cell :     1751.92
      direct lattice vectors                 reciprocal lattice vectors
     8.813512802  0.000000000  0.000000000     0.113462137 -0.065507406  0.000000000
     4.406756909  7.632725690  0.000000000     0.000000000  0.131014796  0.000000000
     0.000000000  0.000000000 26.042657710     0.000000000  0.000000000  0.038398539

  length of vectors
     8.813512802  8.813512802 26.042657710     0.131014796  0.131014796  0.038398539


 FORCES acting on ions
    electron-ion (+dipol)            ewald-force                    non-local-force                 convergence-correction
 -----------------------------------------------------------------------------------------------
   -.200E-04 0.289E-02 0.278E+04   0.519E-04 -.309E-02 -.278E+04   -.320E-10 -.481E-03 -.741E+00   -.174E-03 0.434E-03 -.330E+00
   0.594E+00 0.388E+00 0.278E+04   -.597E+00 -.409E+00 -.278E+04   0.118E-01 0.139E-01 -.333E+00   -.109E-01 0.932E-02 -.350E+00
   -.594E+00 0.388E+00 0.278E+04   0.597E+00 -.409E+00 -.278E+04   -.118E-01 0.139E-01 -.333E+00   0.111E-01 0.113E-01 -.349E+00
   0.631E+00 0.315E+00 0.278E+04   -.650E+00 -.312E+00 -.278E+04   0.185E-01 0.305E-02 -.335E+00   0.210E-02 -.935E-02 -.347E+00
   0.746E-05 -.943E-02 0.278E+04   0.951E-04 0.165E-02 -.278E+04   -.224E-11 -.336E-04 -.301E+00   0.427E-02 0.797E-02 -.327E+00
   -.631E+00 0.315E+00 0.278E+04   0.650E+00 -.312E+00 -.278E+04   -.185E-01 0.305E-02 -.335E+00   -.363E-02 -.836E-02 -.346E+00
   0.372E-01 -.703E+00 0.278E+04   -.532E-01 0.721E+00 -.278E+04   0.637E-02 -.170E-01 -.333E+00   0.146E-01 -.626E-03 -.346E+00
   -.373E-01 -.703E+00 0.278E+04   0.530E-01 0.721E+00 -.278E+04   -.637E-02 -.170E-01 -.333E+00   -.127E-01 -.169E-02 -.345E+00
   0.197E-04 0.638E-02 0.278E+04   0.166E-03 0.148E-02 -.278E+04   0.426E-10 0.639E-03 -.432E+00   -.464E-02 -.848E-02 -.367E+00
   0.455E+01 0.264E+01 0.959E+03   -.428E+01 -.249E+01 -.958E+03   -.195E+00 -.112E+00 -.662E+00   -.338E-01 -.146E-01 0.213E+00
   0.145E-04 0.556E+01 0.967E+03   0.147E-03 -.567E+01 -.967E+03   0.606E-09 0.910E-02 -.406E+00   0.364E-02 0.677E-01 0.343E+00
   -.455E+01 0.264E+01 0.959E+03   0.428E+01 -.249E+01 -.958E+03   0.195E+00 -.112E+00 -.662E+00   0.325E-01 -.134E-01 0.212E+00
   0.481E+01 -.280E+01 0.967E+03   -.490E+01 0.285E+01 -.967E+03   0.783E-02 -.434E-02 -.407E+00   0.547E-01 -.240E-01 0.344E+00
   -.481E+01 -.280E+01 0.967E+03   0.490E+01 0.285E+01 -.967E+03   -.783E-02 -.434E-02 -.407E+00   -.471E-01 -.242E-01 0.344E+00
   0.313E-04 0.298E+01 0.961E+03   0.236E-03 -.302E+01 -.961E+03   0.935E-09 0.140E-01 -.502E+00   -.216E-02 -.136E-01 0.215E+00
   -.217E-04 -.524E+01 0.959E+03   0.163E-03 0.494E+01 -.958E+03   0.150E-07 0.225E+00 -.661E+00   0.340E-03 0.305E-01 0.211E+00
   0.260E+01 -.149E+01 0.961E+03   -.263E+01 0.151E+01 -.961E+03   0.122E-01 -.717E-02 -.499E+00   -.145E-01 -.119E-02 0.210E+00
   -.260E+01 -.149E+01 0.961E+03   0.263E+01 0.151E+01 -.961E+03   -.122E-01 -.717E-02 -.499E+00   0.144E-01 0.584E-03 0.210E+00
   -.397E-04 0.186E+01 -.894E+03   0.540E-04 -.196E+01 0.893E+03   0.178E-08 0.267E-01 0.466E+00   0.348E-02 0.799E-01 0.792E+00
   0.284E+02 0.164E+02 -.851E+03   -.284E+02 -.164E+02 0.850E+03   -.683E+00 -.393E+00 -.606E+00   0.655E+00 0.389E+00 0.174E+01
   -.284E+02 0.164E+02 -.851E+03   0.284E+02 -.164E+02 0.850E+03   0.683E+00 -.393E+00 -.606E+00   -.656E+00 0.391E+00 0.174E+01
   0.576E+01 -.345E+01 -.880E+03   -.637E+01 0.382E+01 0.879E+03   0.304E+00 -.178E+00 0.553E+00   0.307E+00 -.194E+00 0.950E+00
   -.113E-04 -.329E+02 -.851E+03   0.143E-03 0.329E+02 0.850E+03   0.524E-07 0.787E+00 -.606E+00   0.164E-02 -.765E+00 0.174E+01
   -.576E+01 -.345E+01 -.880E+03   0.637E+01 0.382E+01 0.879E+03   -.304E+00 -.178E+00 0.553E+00   -.314E+00 -.193E+00 0.950E+00
   -.162E+01 -.807E+00 -.894E+03   0.168E+01 0.849E+00 0.893E+03   -.209E-01 -.119E-01 0.462E+00   -.478E-01 -.316E-01 0.791E+00
   0.162E+01 -.807E+00 -.894E+03   -.168E+01 0.849E+00 0.893E+03   0.209E-01 -.119E-01 0.462E+00   0.498E-01 -.322E-01 0.791E+00
   0.107E-04 0.676E+01 -.880E+03   0.198E-03 -.747E+01 0.879E+03   0.234E-07 0.352E+00 0.552E+00   -.451E-02 0.355E+00 0.950E+00
   -.115E-04 0.954E+00 -.270E+04   0.291E-04 -.957E+00 0.270E+04   -.505E-11 -.759E-04 0.601E+00   0.402E-03 0.280E-02 0.786E+00
   0.195E+02 0.321E+02 -.268E+04   -.194E+02 -.321E+02 0.268E+04   -.629E+00 -.947E+00 0.317E+00   0.547E+00 0.907E+00 0.704E+00
   -.195E+02 0.321E+02 -.268E+04   0.194E+02 -.321E+02 0.268E+04   0.629E+00 -.947E+00 0.317E+00   -.548E+00 0.909E+00 0.705E+00
   0.370E+02 0.958E+00 -.268E+04   -.369E+02 -.912E+00 0.268E+04   -.113E+01 -.691E-01 0.350E+00   0.106E+01 0.269E-01 0.699E+00
   -.370E+02 0.958E+00 -.268E+04   0.369E+02 -.912E+00 0.268E+04   0.113E+01 -.691E-01 0.350E+00   -.106E+01 0.283E-01 0.699E+00
   0.168E+02 -.330E+02 -.268E+04   -.168E+02 0.329E+02 0.268E+04   -.509E+00 0.102E+01 0.317E+00   0.510E+00 -.934E+00 0.702E+00
   -.168E+02 -.330E+02 -.268E+04   0.168E+02 0.329E+02 0.268E+04   0.509E+00 0.102E+01 0.317E+00   -.508E+00 -.935E+00 0.701E+00
   0.342E-04 -.495E+00 -.271E+04   0.143E-03 0.507E+00 0.270E+04   0.639E-11 0.960E-04 0.569E+00   -.468E-02 -.119E-01 0.746E+00
   -.390E-04 -.453E+00 -.207E+04   0.951E-04 0.448E+00 0.207E+04   -.176E-09 -.265E-02 0.254E+01   0.586E-02 0.836E-02 0.955E+00
   0.240E+03 -.858E-01 -.112E+04   -.286E+03 0.854E-01 0.112E+04   0.456E+02 -.258E-03 -.323E-01   0.305E-01 -.283E-03 -.232E+00
   -.240E+03 -.858E-01 -.112E+04   0.286E+03 0.854E-01 0.112E+04   -.456E+02 -.258E-03 -.323E-01   -.305E-01 -.266E-03 -.232E+00
 -----------------------------------------------------------------------------------------------
   -.609E-03 -.865E-02 -.145E+02   0.171E-12 0.152E-12 0.000E+00   -.198E-09 -.297E-02 -.134E+01   0.588E-02 0.101E-01 0.159E+02
 
 
 POSITION                                       TOTAL-FORCE (eV/Angst)
 -----------------------------------------------------------------------------------
      0.00000      0.00000      5.28038        -0.000000     -0.000211     -0.080557
      2.93784      0.00000      5.28038        -0.001825      0.003631     -0.070729
      5.87568      0.00000      5.28038         0.001825      0.003631     -0.070729
      1.46892      2.54424      5.28038         0.002353     -0.003394     -0.071057
      4.40676      2.54424      5.28038         0.000000      0.000187     -0.101444
      7.34459      2.54424      5.28038        -0.002353     -0.003394     -0.071057
      2.93784      5.08848      5.28038         0.004198     -0.000113     -0.071004
      5.87568      5.08848      5.28038        -0.004198     -0.000113     -0.071004
      8.81351      5.08848      5.28038         0.000000      0.000062     -0.080245
      1.46892      0.84808      7.67911         0.037334      0.021883      0.094695
      4.40676      0.84808      7.67911        -0.000000     -0.033422      0.006884
      7.34459      0.84808      7.67911        -0.037334      0.021883      0.094695
      2.93784      3.39232      7.67911        -0.029330      0.017159      0.006616
      5.87568      3.39232      7.67911         0.029330      0.017159      0.006616
      8.81351      3.39232      7.67911        -0.000000     -0.037961      0.069517
      4.40676      5.93656      7.67911        -0.000000     -0.043465      0.094767
      7.34459      5.93656      7.67911        -0.032906      0.018715      0.069877
     10.28243      5.93656      7.67911         0.032906      0.018715      0.069877
      8.81351      1.69524     10.07173         0.000000      0.005510      0.001807
      2.95099      1.70376     10.05075         0.004331      0.002527      0.002900
      5.86252      1.70376     10.05075        -0.004331      0.002527      0.002900
     10.26977      4.24772     10.05674         0.002903     -0.001713      0.032716
      4.40676      4.22522     10.05075        -0.000000     -0.005079      0.002448
      7.35726      4.24772     10.05674        -0.002903     -0.001713      0.032716
     11.75215      6.78511     10.07173        -0.004537     -0.002480      0.000136
      5.87488      6.78511     10.07173         0.004537     -0.002480      0.000136
      8.81351      6.77002     10.05674         0.000000      0.003276      0.031698
      0.00000      0.00000     12.47665        -0.000000     -0.000485     -0.029697
      2.97645      0.06424     12.45579         0.001409     -0.007466      0.019569
      5.83706      0.06424     12.45579        -0.001409     -0.007466      0.019569
      1.54386      2.54556     12.45579        -0.004984      0.004888      0.020286
      7.26966      2.54556     12.45579         0.004984      0.004888      0.020286
      2.97417      5.02293     12.45579        -0.006487      0.002520      0.019792
      5.83935      5.02293     12.45579         0.006487      0.002520      0.019792
      8.81351      5.08848     12.49078         0.000000      0.000387     -0.062804
      4.40676      2.54424     12.15093         0.000000      0.000546      0.033295
      3.84987      2.50488     16.32304         0.000780     -0.000831      0.003369
      4.96365      2.50488     16.32304        -0.000780     -0.000831      0.003369
 -----------------------------------------------------------------------------------
    total drift:                                0.005273     -0.001489      0.046017


--------------------------------------------------------------------------------------------------------



  FREE ENERGIE OF THE ION-ELECTRON SYSTEM (eV)
  ---------------------------------------------------
  free  energy   TOTEN  =      -128.71865707 eV

  energy  without entropy=     -128.71865707  energy(sigma->0) =     -128.71865707
 


--------------------------------------------------------------------------------------------------------


    POTLOK:  cpu time    0.0661: real time    0.0661


--------------------------------------------------------------------------------------------------------


 stress matrix after NEB project (eV)
    -25.56110     -0.00000      0.00000
     -0.00000    -25.55473      0.00028
      0.00000      0.00028      0.33131
  FORCES: max atom, RMS     0.003556    0.000816
  FORCE total and by dimension    0.005029    0.003369
  Stress total and by dimension   36.145866   25.561101
     LOOP+:  cpu time  232.6282: real time  232.6388
 -----------------------------------------------------------------------------
|                                                                             |
|           W    W    AA    RRRRR   N    N  II  N    N   GGGG   !!!           |
|           W    W   A  A   R    R  NN   N  II  NN   N  G    G  !!!           |
|           W    W  A    A  R    R  N N  N  II  N N  N  G       !!!           |
|           W WW W  AAAAAA  RRRRR   N  N N  II  N  N N  G  GGG   !            |
|           WW  WW  A    A  R   R   N   NN  II  N   NN  G    G                |
|           W    W  A    A  R    R  N    N  II  N    N   GGGG   !!!           |
|                                                                             |
|     Tetrahedron method does not include variations of the Fermi             |
|     occupations, so forces and stress will be inaccurate. We suggest        |
|     using a different smearing scheme ISMEAR = 1 or 2 for metals in         |
|     relaxations.                                                            |
|                                                                             |
 -----------------------------------------------------------------------------

    4ORBIT:  cpu time    0.0000: real time    0.0000



 total charge

# of ion       s       p       d       tot
------------------------------------------
    1        0.545   0.239   8.766   9.550
    2        0.545   0.241   8.765   9.550
    3        0.545   0.241   8.765   9.550
    4        0.545   0.241   8.765   9.550
    5        0.542   0.242   8.763   9.546
    6        0.545   0.241   8.765   9.550
    7        0.545   0.241   8.765   9.550
    8        0.545   0.241   8.765   9.550
    9        0.543   0.239   8.768   9.551
   10        0.522   0.308   8.769   9.599
   11        0.521   0.308   8.779   9.608
   12        0.522   0.308   8.769   9.599
   13        0.521   0.308   8.779   9.608
   14        0.521   0.308   8.779   9.608
   15        0.518   0.309   8.776   9.603
   16        0.522   0.308   8.769   9.599
   17        0.518   0.309   8.776   9.603
   18        0.518   0.309   8.776   9.603
   19        0.517   0.303   8.776   9.596
   20        0.539   0.328   8.757   9.624
   21        0.539   0.328   8.757   9.624
   22        0.512   0.311   8.776   9.599
   23        0.539   0.328   8.757   9.624
   24        0.512   0.311   8.776   9.599
   25        0.517   0.303   8.776   9.596
   26        0.517   0.303   8.776   9.596
   27        0.512   0.311   8.776   9.599
   28        0.539   0.226   8.768   9.533
   29        0.555   0.237   8.756   9.548
   30        0.555   0.237   8.756   9.548
   31        0.555   0.237   8.756   9.548
   32        0.555   0.237   8.756   9.548
   33        0.555   0.237   8.756   9.548
   34        0.555   0.237   8.756   9.548
   35        0.535   0.224   8.769   9.529
   36        0.316   0.224   7.257   7.796
   37        1.373   2.469   0.000   3.842
   38        1.373   2.469   0.000   3.842
--------------------------------------------------
tot         21.754  14.797 314.113 350.663
 
 BZINTS: Fermi energy:   -0.120848;  404.000000 electrons
         Band energy:-0.158173E+04;  BLOECHL correction:   -0.074806

 total amount of memory used by VASP MPI-rank0   317957. kBytes
=======================================================================

   base      :      30000. kBytes
   nonlr-proj:      13365. kBytes
   fftplans  :       6941. kBytes
   grid      :      23980. kBytes
   one-center:        590. kBytes
   wavefun   :     243081. kBytes
 
  
  
 General timing and accounting informations for this job:
 ========================================================
  
                  Total CPU time used (sec):      248.975
                            User time (sec):      240.993
                          System time (sec):        7.982
                         Elapsed time (sec):      249.376
  
                   Maximum memory used (kb):      594240.
                   Average memory used (kb):          N/A
  
                          Minor page faults:       109440
                          Major page faults:            0
                 Voluntary context switches:         5170
