PROCAR new format
# of k-points:   10         # of bands:  252         # of ions:   38

 k-point     1 :    0.00000000 0.00000000 0.00000000     weight = 0.01562500

band     1 # energy  -17.84491870 # occ.  2.00000000
 
ion      s      p      d    tot
    1  0.000  0.000  0.000  0.000
    2  0.000  0.000  0.000  0.000
    3  0.000  0.000  0.000  0.000
    4  0.000  0.000  0.000  0.000
    5  0.000  0.000  0.000  0.000
    6  0.000  0.000  0.000  0.000
    7  0.000  0.000  0.000  0.000
    8  0.000  0.000  0.000  0.000
    9  0.000  0.000  0.000  0.000
   10  0.000  0.000  0.000  0.000
   11  0.000  0.000  0.000  0.000
   12  0.000  0.000  0.000  0.000
   13  0.000  0.000  0.000  0.000
   14  0.000  0.000  0.000  0.000
   15  0.000  0.000  0.000  0.000
   16  0.000  0.000  0.000  0.000
   17  0.000  0.000  0.000  0.000
   18  0.000  0.000  0.000  0.000
   19  0.000  0.000  0.000  0.000
   20  0.000  0.000  0.000  0.000
   21  0.000  0.000  0.000  0.000
   22  0.000  0.000  0.000  0.000
   23  0.000  0.000  0.000  0.000
   24  0.000  0.000  0.000  0.000
   25  0.000  0.000  0.000  0.000
   26  0.000  0.000  0.000  0.000
   27  0.000  0.000  0.000  0.000
   28  0.000  0.000  0.000  0.000
   29  0.000  0.000  0.000  0.000
   30  0.000  0.000  0.000  0.000
   31  0.000  0.000  0.000  0.000
   32  0.000  0.000  0.000  0.000
   33  0.000  0.000  0.000  0.000
   34  0.000  0.000  0.000  0.000
   35  0.000  0.000  0.000  0.000
   36  0.005  0.008  0.011  0.024
   37  0.732  0.020  0.000  0.752
   38  0.121  0.024  0.000  0.146
tot    0.859  0.052  0.011  0.922
 
band     2 # energy   -8.70441063 # occ.  2.00000000
 
ion      s      p      d    tot
    1  0.007  0.001  0.000  0.008
    2  0.007  0.001  0.000  0.008
    3  0.007  0.001  0.000  0.008
    4  0.007  0.001  0.000  0.008
    5  0.007  0.001  0.000  0.008
    6  0.007  0.001  0.000  0.008
    7  0.007  0.001  0.000  0.008
    8  0.007  0.001  0.000  0.008
    9  0.007  0.001  0.000  0.008
   10  0.028  0.000  0.000  0.028
   11  0.027  0.000  0.000  0.028
   12  0.028  0.000  0.000  0.028
   13  0.027  0.000  0.000  0.028
   14  0.027  0.000  0.000  0.028
   15  0.028  0.000  0.000  0.028
   16  0.028  0.000  0.000  0.028
   17  0.028  0.000  0.000  0.028
   18  0.028  0.000  0.000  0.028
   19  0.024  0.000  0.000  0.025
   20  0.023  0.000  0.000  0.023
   21  0.023  0.000  0.000  0.023
   22  0.024  0.000  0.000  0.024
   23  0.023  0.000  0.000  0.023
   24  0.024  0.000  0.000  0.024
   25  0.024  0.000  0.000  0.024
   26  0.024  0.000  0.000  0.025
   27  0.024  0.000  0.000  0.024
   28  0.005  0.000  0.000  0.005
   29  0.004  0.000  0.000  0.005
   30  0.004  0.000  0.000  0.005
   31  0.004  0.000  0.000  0.005
   32  0.004  0.000  0.000  0.005
   33  0.004  0.000  0.000  0.005
   34  0.004  0.000  0.000  0.005
   35  0.005  0.000  0.000  0.005
   36  0.004  0.000  0.000  0.004
   37  0.000  0.001  0.000  0.001
   38  0.000  0.000  0.000  0.000
tot    0.565  0.012  0.004  0.580
 
band     3 # energy   -7.52703435 # occ.  2.00000000
 
ion      s      p      d    tot
    1  0.017  0.000  0.001  0.018
    2  0.016  0.000  0.001  0.018
    3  0.016  0.000  0.001  0.018
    4  0.016  0.000  0.001  0.018
    5  0.016  0.000  0.001  0.018
    6  0.016  0.000  0.001  0.018
    7  0.016  0.000  0.001  0.018
    8  0.016  0.000  0.001  0.018
    9  0.016  0.000  0.001  0.018
   10  0.009  0.002  0.002  0.013
   11  0.009  0.001  0.002  0.013
   12  0.009  0.002  0.002  0.013
   13  0.009  0.001  0.002  0.013
   14  0.009  0.001  0.002  0.013
   15  0.009  0.002  0.003  0.013
   16  0.009  0.002  0.002  0.013
   17  0.009  0.002  0.003  0.013
   18  0.009  0.002  0.003  0.013
   19  0.016  0.001  0.004  0.021
   20  0.014  0.001  0.004  0.019
   21  0.014  0.001  0.004  0.019
   22  0.016  0.001  0.003  0.020
   23  0.014  0.001  0.004  0.019
   24  0.016  0.001  0.003  0.020
   25  0.016  0.001  0.004  0.021
   26  0.016  0.001  0.004  0.021
   27  0.016  0.001  0.003  0.020
   28  0.015  0.001  0.000  0.016
   29  0.014  0.001  0.000  0.015
   30  0.014  0.001  0.000  0.015
   31  0.014  0.001  0.000  0.015
   32  0.014  0.001  0.000  0.015
   33  0.014  0.001  0.000  0.015
   34  0.014  0.001  0.000  0.015
   35  0.015  0.001  0.001  0.017
   36  0.011  0.000  0.000  0.011
   37  0.000  0.006  0.000  0.006
   38  0.002  0.000  0.000  0.002
tot    0.494  0.037  0.070  0.601
 
band     4 # energy   -6.63243230 # occ.  2.00000000
 
ion      s      p      d    tot
    1  0.016  0.000  0.001  0.017
    2  0.004  0.000  0.006  0.010
    3  0.004  0.000  0.006  0.010
    4  0.004  0.000  0.006  0.010
    5  0.006  0.000  0.005  0.010
    6  0.004  0.000  0.006  0.010
    7  0.004  0.000  0.006  0.010
    8  0.004  0.000  0.006  0.010
    9  0.000  0.001  0.006  0.007
   10  0.001  0.000  0.016  0.017
   11  0.000  0.001  0.009  0.010
   12  0.001  0.000  0.016  0.017
   13  0.000  0.001  0.009  0.010
   14  0.000  0.001  0.009  0.010
   15  0.018  0.001  0.002  0.021
   16  0.001  0.000  0.016  0.017
   17  0.018  0.001  0.002  0.021
   18  0.018  0.001  0.002  0.021
   19  0.000  0.000  0.009  0.010
   20  0.007  0.000  0.014  0.022
   21  0.007  0.000  0.014  0.022
   22  0.011  0.001  0.001  0.013
   23  0.007  0.000  0.014  0.022
   24  0.011  0.001  0.001  0.013
   25  0.000  0.000  0.009  0.010
   26  0.000  0.000  0.009  0.010
   27  0.011  0.001  0.001  0.013
   28  0.000  0.000  0.001  0.001
   29  0.000  0.000  0.002  0.002
   30  0.000  0.000  0.002  0.002
   31  0.000  0.000  0.002  0.002
   32  0.000  0.000  0.002  0.002
   33  0.000  0.000  0.002  0.002
   34  0.000  0.000  0.002  0.002
   35  0.002  0.000  0.001  0.003
   36  0.038  0.006  0.074  0.118
   37  0.010  0.205  0.000  0.214
   38  0.070  0.007  0.000  0.077
tot    0.280  0.235  0.283  0.798
 
band     5 # energy   -6.59913447 # occ.  2.00000000
 
ion      s      p      d    tot
    1  0.008  0.000  0.022  0.031
    2  0.017  0.000  0.017  0.034
    3  0.017  0.000  0.017  0.034
    4  0.017  0.000  0.017  0.034
    5  0.015  0.000  0.015  0.030
    6  0.017  0.000  0.017  0.034
    7  0.017  0.000  0.017  0.034
    8  0.017  0.000  0.017  0.034
    9  0.031  0.000  0.014  0.045
   10  0.016  0.001  0.020  0.037
   11  0.010  0.001  0.021  0.032
   12  0.016  0.001  0.020  0.037
   13  0.010  0.001  0.021  0.032
   14  0.010  0.001  0.021  0.032
   15  0.000  0.001  0.025  0.026
   16  0.016  0.001  0.020  0.037
   17  0.000  0.001  0.025  0.026
   18  0.000  0.001  0.025  0.026
   19  0.000  0.001  0.005  0.006
   20  0.002  0.001  0.007  0.010
   21  0.002  0.001  0.007  0.010
   22  0.005  0.001  0.001  0.006
   23  0.002  0.001  0.007  0.010
   24  0.005  0.001  0.001  0.006
   25  0.000  0.001  0.005  0.006
   26  0.000  0.001  0.005  0.006
   27  0.005  0.001  0.001  0.006
   28  0.003  0.000  0.000  0.003
   29  0.002  0.000  0.001  0.003
   30  0.002  0.000  0.001  0.003
   31  0.002  0.000  0.001  0.003
   32  0.002  0.000  0.001  0.003
   33  0.002  0.000  0.001  0.003
   34  0.002  0.000  0.001  0.003
   35  0.007  0.000  0.000  0.007
   36  0.002  0.000  0.010  0.012
   37  0.001  0.015  0.000  0.016
   38  0.005  0.000  0.000  0.006
tot    0.286  0.031  0.406  0.723
 
band     6 # energy   -6.54800551 # occ.  2.00000000
 
ion      s      p      d    tot
    1  0.000  0.001  0.004  0.005
    2  0.003  0.001  0.003  0.007
    3  0.001  0.001  0.004  0.005
    4  0.003  0.001  0.003  0.007
    5  0.000  0.000  0.004  0.004
    6  0.008  0.001  0.004  0.014
    7  0.001  0.001  0.004  0.006
    8  0.008  0.001  0.004  0.014
    9  0.000  0.001  0.011  0.012
   10  0.000  0.005  0.007  0.012
   11  0.004  0.001  0.012  0.017
   12  0.023  0.001  0.014  0.039
   13  0.003  0.001  0.012  0.017
   14  0.000  0.002  0.020  0.022
   15  0.046  0.002  0.014  0.062
   16  0.024  0.001  0.014  0.040
   17  0.044  0.002  0.015  0.061
   18  0.000  0.001  0.046  0.046
   19  0.035  0.002  0.012  0.048
   20  0.000  0.002  0.011  0.013
   21  0.001  0.001  0.010  0.012
   22  0.023  0.001  0.013  0.037
   23  0.001  0.001  0.010  0.012
   24  0.000  0.004  0.012  0.016
   25  0.000  0.000  0.037  0.038
   26  0.033  0.002  0.012  0.047
   27  0.024  0.001  0.013  0.038
   28  0.000  0.001  0.007  0.007
   29  0.005  0.001  0.002  0.008
   30  0.002  0.000  0.002  0.004
   31  0.005  0.001  0.002  0.008
   32  0.001  0.000  0.002  0.003
   33  0.001  0.000  0.002  0.004
   34  0.001  0.000  0.002  0.003
   35  0.000  0.001  0.003  0.004
   36  0.000  0.000  0.001  0.001
   37  0.000  0.000  0.000  0.000
   38  0.000  0.000  0.000  0.000
tot    0.302  0.042  0.350  0.693
 
band     7 # energy   -6.54798546 # occ.  2.00000000
 
ion      s      p      d    tot
    1  0.000  0.001  0.004  0.005
    2  0.005  0.001  0.004  0.011
    3  0.007  0.001  0.004  0.012
    4  0.005  0.001  0.004  0.010
    5  0.000  0.000  0.004  0.004
    6  0.000  0.000  0.003  0.004
    7  0.007  0.001  0.004  0.012
    8  0.000  0.000  0.003  0.004
    9  0.000  0.001  0.011  0.012
   10  0.032  0.000  0.017  0.049
   11  0.001  0.002  0.018  0.021
   12  0.008  0.004  0.010  0.021
   13  0.001  0.002  0.018  0.021
   14  0.004  0.001  0.009  0.015
   15  0.014  0.001  0.036  0.051
   16  0.007  0.004  0.009  0.020
   17  0.016  0.001  0.035  0.052
   18  0.060  0.002  0.004  0.066
   19  0.011  0.001  0.029  0.041
   20  0.001  0.001  0.010  0.012
   21  0.000  0.002  0.011  0.013
   22  0.008  0.003  0.012  0.024
   23  0.000  0.002  0.011  0.013
   24  0.031  0.000  0.013  0.045
   25  0.044  0.002  0.004  0.050
   26  0.012  0.001  0.028  0.041
   27  0.008  0.003  0.012  0.023
   28  0.000  0.001  0.007  0.007
   29  0.000  0.000  0.002  0.002
   30  0.003  0.001  0.002  0.006
   31  0.000  0.000  0.002  0.002
   32  0.004  0.001  0.003  0.007
   33  0.003  0.001  0.002  0.006
   34  0.004  0.001  0.003  0.007
   35  0.000  0.001  0.003  0.004
   36  0.000  0.000  0.001  0.001
   37  0.000  0.000  0.000  0.000
   38  0.000  0.000  0.000  0.000
tot    0.302  0.042  0.350  0.693
 
band     8 # energy   -6.54589940 # occ.  2.00000000
 
ion      s      p      d    tot
    1  0.009  0.001  0.000  0.011
    2  0.000  0.001  0.006  0.007
    3  0.000  0.001  0.006  0.007
    4  0.000  0.001  0.006  0.007
    5  0.014  0.002  0.002  0.018
    6  0.000  0.001  0.006  0.007
    7  0.000  0.001  0.006  0.007
    8  0.000  0.001  0.006  0.007
    9  0.001  0.000  0.001  0.002
   10  0.020  0.003  0.003  0.026
   11  0.026  0.001  0.019  0.047
   12  0.021  0.003  0.003  0.027
   13  0.026  0.001  0.019  0.047
   14  0.027  0.001  0.020  0.047
   15  0.000  0.001  0.028  0.029
   16  0.021  0.003  0.003  0.027
   17  0.000  0.001  0.028  0.029
   18  0.000  0.001  0.028  0.029
   19  0.026  0.002  0.007  0.035
   20  0.007  0.003  0.009  0.019
   21  0.007  0.003  0.010  0.019
   22  0.006  0.000  0.025  0.032
   23  0.007  0.003  0.010  0.019
   24  0.007  0.000  0.025  0.032
   25  0.027  0.002  0.007  0.036
   26  0.026  0.002  0.007  0.035
   27  0.006  0.000  0.025  0.032
   28  0.011  0.001  0.001  0.013
   29  0.000  0.000  0.004  0.004
   30  0.000  0.000  0.004  0.004
   31  0.000  0.000  0.004  0.004
   32  0.000  0.000  0.004  0.004
   33  0.000  0.000  0.004  0.004
   34  0.000  0.000  0.004  0.004
   35  0.004  0.001  0.002  0.006
   36  0.003  0.000  0.002  0.004
   37  0.000  0.007  0.000  0.008
   38  0.002  0.000  0.000  0.003
tot    0.305  0.049  0.341  0.695
 
band     9 # energy   -6.53635705 # occ.  2.00000000
 
ion      s      p      d    tot
    1  0.000  0.000  0.009  0.009
    2  0.003  0.001  0.003  0.007
    3  0.001  0.001  0.004  0.005
    4  0.003  0.001  0.003  0.007
    5  0.000  0.001  0.009  0.010
    6  0.008  0.001  0.004  0.014
    7  0.001  0.001  0.004  0.005
    8  0.008  0.001  0.004  0.014
    9  0.000  0.000  0.001  0.002
   10  0.034  0.002  0.004  0.039
   11  0.015  0.002  0.023  0.040
   12  0.009  0.001  0.033  0.042
   13  0.015  0.002  0.023  0.041
   14  0.060  0.001  0.011  0.071
   15  0.001  0.003  0.007  0.011
   16  0.008  0.001  0.034  0.042
   17  0.001  0.003  0.007  0.011
   18  0.004  0.000  0.016  0.020
   19  0.002  0.003  0.006  0.011
   20  0.050  0.001  0.007  0.058
   21  0.013  0.002  0.023  0.037
   22  0.005  0.001  0.022  0.029
   23  0.012  0.002  0.023  0.037
   24  0.021  0.002  0.005  0.028
   25  0.007  0.000  0.014  0.021
   26  0.002  0.003  0.006  0.011
   27  0.005  0.001  0.023  0.029
   28  0.000  0.000  0.001  0.001
   29  0.005  0.001  0.002  0.008
   30  0.001  0.000  0.002  0.004
   31  0.005  0.001  0.002  0.008
   32  0.001  0.000  0.002  0.003
   33  0.001  0.000  0.002  0.004
   34  0.001  0.000  0.002  0.003
   35  0.000  0.000  0.005  0.005
   36  0.000  0.001  0.004  0.005
   37  0.000  0.000  0.000  0.000
   38  0.000  0.000  0.000  0.000
tot    0.302  0.042  0.349  0.694
 
band    10 # energy   -6.53633593 # occ.  2.00000000
 
ion      s      p      d    tot
    1  0.000  0.000  0.009  0.009
    2  0.005  0.001  0.004  0.010
    3  0.007  0.001  0.004  0.012
    4  0.005  0.001  0.004  0.010
    5  0.000  0.001  0.009  0.010
    6  0.000  0.000  0.003  0.004
    7  0.007  0.001  0.004  0.012
    8  0.000  0.000  0.003  0.004
    9  0.000  0.000  0.001  0.002
   10  0.000  0.000  0.043  0.043
   11  0.045  0.001  0.015  0.061
   12  0.025  0.001  0.014  0.040
   13  0.044  0.001  0.015  0.061
   14  0.000  0.003  0.027  0.030
   15  0.003  0.001  0.013  0.017
   16  0.026  0.001  0.013  0.040
   17  0.003  0.001  0.013  0.017
   18  0.000  0.004  0.004  0.008
   19  0.005  0.001  0.011  0.017
   20  0.000  0.002  0.028  0.030
   21  0.037  0.002  0.012  0.051
   22  0.016  0.001  0.011  0.028
   23  0.038  0.002  0.012  0.052
   24  0.000  0.000  0.029  0.029
   25  0.000  0.004  0.004  0.007
   26  0.005  0.001  0.011  0.017
   27  0.016  0.001  0.010  0.028
   28  0.000  0.000  0.001  0.001
   29  0.000  0.000  0.002  0.002
   30  0.004  0.001  0.002  0.006
   31  0.000  0.000  0.002  0.002
   32  0.004  0.001  0.003  0.007
   33  0.004  0.001  0.002  0.006
   34  0.004  0.001  0.003  0.007
   35  0.000  0.000  0.005  0.005
   36  0.000  0.001  0.004  0.005
   37  0.000  0.000  0.000  0.000
   38  0.000  0.000  0.000  0.000
tot    0.302  0.042  0.349  0.694
 
band    11 # energy   -6.47264761 # occ.  2.00000000
 
ion      s      p      d    tot
    1  0.002  0.000  0.000  0.002
    2  0.000  0.000  0.002  0.002
    3  0.000  0.000  0.002  0.002
    4  0.000  0.000  0.002  0.002
    5  0.001  0.000  0.000  0.002
    6  0.000  0.000  0.002  0.002
    7  0.000  0.000  0.002  0.002
    8  0.000  0.000  0.002  0.002
    9  0.005  0.001  0.001  0.007
   10  0.001  0.000  0.015  0.016
   11  0.001  0.001  0.008  0.010
   12  0.001  0.000  0.015  0.016
   13  0.001  0.001  0.008  0.010
   14  0.001  0.001  0.008  0.010
   15  0.013  0.001  0.005  0.019
   16  0.001  0.000  0.015  0.016
   17  0.013  0.001  0.005  0.019
   18  0.013  0.001  0.005  0.019
   19  0.005  0.000  0.022  0.027
   20  0.015  0.001  0.010  0.026
   21  0.015  0.001  0.010  0.026
   22  0.000  0.001  0.023  0.024
   23  0.015  0.001  0.010  0.026
   24  0.000  0.001  0.023  0.024
   25  0.005  0.000  0.022  0.027
   26  0.005  0.000  0.022  0.027
   27  0.000  0.001  0.023  0.024
   28  0.014  0.000  0.009  0.022
   29  0.011  0.000  0.011  0.022
   30  0.011  0.000  0.011  0.022
   31  0.011  0.000  0.011  0.022
   32  0.011  0.000  0.011  0.022
   33  0.011  0.000  0.011  0.022
   34  0.011  0.000  0.011  0.022
   35  0.018  0.000  0.011  0.029
   36  0.017  0.010  0.011  0.038
   37  0.005  0.103  0.000  0.108
   38  0.036  0.003  0.000  0.039
tot    0.267  0.131  0.361  0.759
 
band    12 # energy   -6.38095501 # occ.  2.00000000
 
ion      s      p      d    tot
    1  0.003  0.000  0.000  0.003
    2  0.000  0.000  0.003  0.004
    3  0.000  0.000  0.003  0.004
    4  0.000  0.000  0.003  0.004
    5  0.005  0.000  0.000  0.006
    6  0.000  0.000  0.003  0.004
    7  0.000  0.000  0.003  0.004
    8  0.000  0.000  0.003  0.004
    9  0.006  0.001  0.002  0.008
   10  0.002  0.000  0.015  0.017
   11  0.004  0.001  0.002  0.008
   12  0.002  0.000  0.015  0.017
   13  0.004  0.001  0.002  0.008
   14  0.004  0.001  0.002  0.008
   15  0.014  0.001  0.007  0.022
   16  0.002  0.000  0.015  0.017
   17  0.014  0.001  0.007  0.022
   18  0.014  0.001  0.007  0.022
   19  0.001  0.001  0.010  0.012
   20  0.000  0.000  0.018  0.018
   21  0.000  0.000  0.018  0.018
   22  0.009  0.002  0.012  0.023
   23  0.000  0.000  0.018  0.018
   24  0.009  0.002  0.012  0.023
   25  0.001  0.001  0.010  0.012
   26  0.001  0.001  0.010  0.012
   27  0.009  0.002  0.012  0.023
   28  0.019  0.000  0.014  0.033
   29  0.013  0.000  0.011  0.024
   30  0.013  0.000  0.011  0.024
   31  0.013  0.000  0.011  0.024
   32  0.013  0.000  0.011  0.024
   33  0.013  0.000  0.011  0.024
   34  0.013  0.000  0.011  0.024
   35  0.016  0.000  0.013  0.029
   36  0.001  0.006  0.064  0.071
   37  0.006  0.098  0.000  0.104
   38  0.032  0.003  0.000  0.035
tot    0.259  0.128  0.372  0.759
 
band    13 # energy   -6.05946626 # occ.  2.00000000
 
ion      s      p      d    tot
    1  0.016  0.002  0.002  0.019
    2  0.000  0.001  0.009  0.009
    3  0.000  0.001  0.009  0.009
    4  0.000  0.001  0.009  0.009
    5  0.000  0.000  0.002  0.002
    6  0.000  0.001  0.009  0.009
    7  0.000  0.001  0.009  0.009
    8  0.000  0.001  0.009  0.009
    9  0.016  0.001  0.000  0.017
   10  0.009  0.002  0.009  0.020
   11  0.004  0.000  0.037  0.041
   12  0.009  0.002  0.009  0.020
   13  0.004  0.000  0.037  0.041
   14  0.004  0.000  0.037  0.041
   15  0.001  0.001  0.032  0.034
   16  0.009  0.002  0.009  0.020
   17  0.001  0.001  0.032  0.034
   18  0.001  0.001  0.032  0.034
   19  0.007  0.001  0.012  0.020
   20  0.001  0.000  0.042  0.043
   21  0.001  0.000  0.041  0.043
   22  0.013  0.001  0.021  0.035
   23  0.001  0.000  0.041  0.043
   24  0.013  0.001  0.021  0.035
   25  0.006  0.001  0.012  0.020
   26  0.007  0.001  0.012  0.020
   27  0.013  0.001  0.021  0.035
   28  0.013  0.002  0.001  0.015
   29  0.000  0.001  0.006  0.007
   30  0.000  0.001  0.006  0.007
   31  0.000  0.001  0.006  0.007
   32  0.000  0.001  0.006  0.007
   33  0.000  0.001  0.006  0.007
   34  0.000  0.001  0.006  0.007
   35  0.011  0.001  0.002  0.015
   36  0.001  0.000  0.000  0.001
   37  0.000  0.001  0.000  0.001
   38  0.000  0.000  0.000  0.000
tot    0.160  0.032  0.554  0.746
 
band    14 # energy   -6.05735269 # occ.  2.00000000
 
ion      s      p      d    tot
    1  0.000  0.001  0.014  0.015
    2  0.002  0.001  0.005  0.009
    3  0.010  0.001  0.005  0.016
    4  0.003  0.001  0.005  0.009
    5  0.000  0.000  0.009  0.009
    6  0.002  0.000  0.005  0.008
    7  0.010  0.001  0.005  0.016
    8  0.002  0.000  0.005  0.008
    9  0.000  0.001  0.004  0.004
   10  0.015  0.001  0.014  0.029
   11  0.000  0.001  0.014  0.015
   12  0.004  0.000  0.043  0.047
   13  0.000  0.001  0.013  0.015
   14  0.001  0.000  0.024  0.025
   15  0.002  0.001  0.041  0.044
   16  0.004  0.000  0.043  0.047
   17  0.002  0.001  0.041  0.044
   18  0.009  0.002  0.009  0.021
   19  0.007  0.000  0.051  0.058
   20  0.003  0.001  0.013  0.016
   21  0.001  0.001  0.031  0.033
   22  0.003  0.001  0.016  0.020
   23  0.001  0.001  0.031  0.033
   24  0.012  0.000  0.023  0.036
   25  0.027  0.001  0.006  0.034
   26  0.007  0.000  0.051  0.058
   27  0.003  0.001  0.016  0.020
   28  0.000  0.001  0.007  0.009
   29  0.004  0.001  0.003  0.007
   30  0.006  0.001  0.004  0.011
   31  0.004  0.001  0.003  0.007
   32  0.000  0.000  0.004  0.005
   33  0.006  0.001  0.004  0.011
   34  0.000  0.000  0.004  0.005
   35  0.000  0.001  0.007  0.008
   36  0.000  0.000  0.001  0.001
   37  0.000  0.000  0.000  0.000
   38  0.000  0.000  0.000  0.000
tot    0.150  0.029  0.572  0.751
 
band    15 # energy   -6.05733932 # occ.  2.00000000
 
ion      s      p      d    tot
    1  0.000  0.001  0.014  0.015
    2  0.007  0.001  0.004  0.013
    3  0.000  0.000  0.005  0.006
    4  0.007  0.001  0.004  0.013
    5  0.000  0.000  0.009  0.009
    6  0.007  0.001  0.005  0.014
    7  0.000  0.000  0.005  0.006
    8  0.008  0.001  0.005  0.014
    9  0.000  0.001  0.004  0.004
   10  0.000  0.000  0.053  0.053
   11  0.001  0.001  0.020  0.021
   12  0.011  0.001  0.023  0.035
   13  0.001  0.001  0.020  0.021
   14  0.000  0.001  0.010  0.012
   15  0.007  0.002  0.020  0.028
   16  0.011  0.001  0.024  0.035
   17  0.007  0.002  0.019  0.028
   18  0.000  0.000  0.051  0.052
   19  0.020  0.001  0.021  0.042
   20  0.000  0.001  0.037  0.038
   21  0.002  0.001  0.019  0.022
   22  0.009  0.000  0.021  0.031
   23  0.002  0.001  0.019  0.022
   24  0.000  0.001  0.013  0.014
   25  0.000  0.000  0.066  0.066
   26  0.020  0.001  0.021  0.042
   27  0.009  0.000  0.021  0.030
   28  0.000  0.001  0.007  0.009
   29  0.003  0.001  0.004  0.008
   30  0.001  0.000  0.003  0.004
   31  0.003  0.001  0.004  0.008
   32  0.007  0.001  0.003  0.011
   33  0.001  0.000  0.003  0.004
   34  0.007  0.001  0.003  0.011
   35  0.000  0.001  0.007  0.008
   36  0.000  0.000  0.001  0.001
   37  0.000  0.000  0.000  0.000
   38  0.000  0.000  0.000  0.000
tot    0.150  0.029  0.572  0.751
 
band    16 # energy   -6.05050676 # occ.  2.00000000
 
ion      s      p      d    tot
    1  0.000  0.000  0.005  0.005
    2  0.003  0.001  0.006  0.009
    3  0.010  0.001  0.005  0.016
    4  0.003  0.001  0.006  0.009
    5  0.000  0.001  0.008  0.009
    6  0.002  0.000  0.005  0.007
    7  0.010  0.001  0.005  0.016
    8  0.002  0.000  0.005  0.007
    9  0.000  0.001  0.014  0.015
   10  0.000  0.001  0.024  0.025
   11  0.012  0.002  0.021  0.035
   12  0.001  0.001  0.019  0.022
   13  0.012  0.002  0.021  0.035
   14  0.000  0.000  0.065  0.065
   15  0.006  0.000  0.023  0.030
   16  0.001  0.001  0.019  0.022
   17  0.006  0.000  0.023  0.030
   18  0.000  0.001  0.025  0.026
   19  0.001  0.001  0.020  0.021
   20  0.000  0.000  0.038  0.038
   21  0.018  0.001  0.021  0.040
   22  0.012  0.001  0.019  0.032
   23  0.018  0.001  0.021  0.040
   24  0.000  0.001  0.063  0.064
   25  0.000  0.002  0.012  0.014
   26  0.001  0.001  0.020  0.021
   27  0.012  0.001  0.020  0.032
   28  0.000  0.000  0.005  0.005
   29  0.004  0.001  0.003  0.007
   30  0.007  0.001  0.004  0.012
   31  0.004  0.001  0.003  0.007
   32  0.001  0.000  0.004  0.005
   33  0.007  0.001  0.004  0.012
   34  0.001  0.000  0.004  0.005
   35  0.000  0.001  0.005  0.006
   36  0.000  0.002  0.005  0.006
   37  0.000  0.000  0.000  0.000
   38  0.000  0.000  0.000  0.000
tot    0.155  0.030  0.566  0.751
 
band    17 # energy   -6.05048910 # occ.  2.00000000
 
ion      s      p      d    tot
    1  0.000  0.000  0.005  0.005
    2  0.007  0.001  0.004  0.012
    3  0.000  0.000  0.005  0.006
    4  0.007  0.001  0.004  0.012
    5  0.000  0.001  0.008  0.009
    6  0.008  0.001  0.005  0.014
    7  0.000  0.000  0.005  0.006
    8  0.008  0.001  0.005  0.014
    9  0.000  0.001  0.014  0.015
   10  0.001  0.001  0.018  0.020
   11  0.004  0.001  0.050  0.055
   12  0.000  0.001  0.023  0.024
   13  0.004  0.001  0.051  0.055
   14  0.016  0.002  0.007  0.025
   15  0.002  0.001  0.024  0.027
   16  0.000  0.001  0.023  0.024
   17  0.002  0.001  0.025  0.027
   18  0.008  0.000  0.022  0.031
   19  0.000  0.001  0.015  0.016
   20  0.025  0.001  0.015  0.040
   21  0.006  0.000  0.032  0.039
   22  0.004  0.001  0.049  0.053
   23  0.006  0.000  0.032  0.039
   24  0.015  0.001  0.005  0.022
   25  0.001  0.000  0.022  0.024
   26  0.000  0.001  0.014  0.016
   27  0.004  0.001  0.048  0.053
   28  0.000  0.000  0.005  0.005
   29  0.004  0.001  0.004  0.009
   30  0.000  0.000  0.003  0.004
   31  0.004  0.001  0.004  0.009
   32  0.007  0.001  0.003  0.012
   33  0.000  0.000  0.003  0.004
   34  0.007  0.001  0.003  0.012
   35  0.000  0.001  0.005  0.006
   36  0.000  0.002  0.005  0.006
   37  0.000  0.000  0.000  0.000
   38  0.000  0.000  0.000  0.000
tot    0.155  0.030  0.566  0.751
 
band    18 # energy   -5.99745531 # occ.  2.00000000
 
ion      s      p      d    tot
    1  0.011  0.000  0.001  0.012
    2  0.000  0.001  0.009  0.010
    3  0.000  0.001  0.009  0.010
    4  0.000  0.001  0.009  0.010
    5  0.017  0.002  0.001  0.019
    6  0.000  0.001  0.009  0.010
    7  0.000  0.001  0.009  0.010
    8  0.000  0.001  0.009  0.010
    9  0.001  0.000  0.002  0.003
   10  0.000  0.000  0.042  0.043
   11  0.003  0.002  0.018  0.023
   12  0.000  0.000  0.042  0.043
   13  0.003  0.002  0.018  0.023
   14  0.003  0.002  0.018  0.023
   15  0.003  0.001  0.022  0.025
   16  0.000  0.000  0.042  0.043
   17  0.003  0.001  0.022  0.025
   18  0.003  0.001  0.022  0.025
   19  0.006  0.000  0.054  0.060
   20  0.013  0.001  0.004  0.017
   21  0.013  0.001  0.004  0.017
   22  0.001  0.000  0.028  0.030
   23  0.013  0.001  0.004  0.017
   24  0.001  0.000  0.028  0.030
   25  0.006  0.000  0.054  0.060
   26  0.006  0.000  0.054  0.060
   27  0.001  0.000  0.028  0.030
   28  0.000  0.000  0.007  0.008
   29  0.001  0.000  0.005  0.006
   30  0.001  0.000  0.005  0.006
   31  0.001  0.000  0.005  0.006
   32  0.001  0.000  0.005  0.006
   33  0.001  0.000  0.005  0.006
   34  0.001  0.000  0.005  0.006
   35  0.002  0.000  0.000  0.002
   36  0.001  0.006  0.006  0.013
   37  0.002  0.021  0.000  0.022
   38  0.007  0.001  0.000  0.008
tot    0.124  0.047  0.608  0.779
 
band    19 # energy   -5.68152524 # occ.  2.00000000
 
ion      s      p      d    tot
    1  0.000  0.001  0.009  0.011
    2  0.002  0.001  0.016  0.018
    3  0.014  0.001  0.018  0.032
    4  0.002  0.001  0.016  0.018
    5  0.000  0.000  0.035  0.036
    6  0.005  0.001  0.010  0.016
    7  0.014  0.001  0.018  0.032
    8  0.005  0.001  0.010  0.016
    9  0.000  0.001  0.020  0.022
   10  0.000  0.000  0.040  0.040
   11  0.000  0.000  0.023  0.024
   12  0.000  0.000  0.020  0.020
   13  0.000  0.000  0.023  0.024
   14  0.000  0.001  0.018  0.018
   15  0.000  0.000  0.058  0.058
   16  0.000  0.000  0.020  0.020
   17  0.000  0.000  0.058  0.058
   18  0.000  0.001  0.051  0.052
   19  0.000  0.000  0.020  0.021
   20  0.002  0.000  0.017  0.019
   21  0.001  0.000  0.006  0.007
   22  0.000  0.000  0.031  0.032
   23  0.001  0.000  0.006  0.007
   24  0.001  0.000  0.042  0.043
   25  0.000  0.000  0.015  0.016
   26  0.000  0.000  0.020  0.021
   27  0.000  0.000  0.031  0.032
   28  0.000  0.000  0.018  0.018
   29  0.002  0.000  0.010  0.013
   30  0.001  0.001  0.005  0.006
   31  0.002  0.000  0.010  0.013
   32  0.007  0.000  0.009  0.016
   33  0.001  0.001  0.005  0.006
   34  0.007  0.000  0.009  0.016
   35  0.000  0.001  0.016  0.017
   36  0.000  0.001  0.002  0.003
   37  0.000  0.000  0.000  0.000
   38  0.000  0.000  0.000  0.000
tot    0.070  0.017  0.735  0.821
 
band    20 # energy   -5.68152045 # occ.  2.00000000
 
ion      s      p      d    tot
    1  0.000  0.001  0.009  0.010
    2  0.012  0.001  0.011  0.024
    3  0.000  0.001  0.015  0.015
    4  0.012  0.001  0.011  0.024
    5  0.000  0.000  0.036  0.036
    6  0.009  0.001  0.017  0.027
    7  0.000  0.001  0.015  0.016
    8  0.009  0.001  0.017  0.027
    9  0.000  0.001  0.020  0.022
   10  0.000  0.000  0.020  0.021
   11  0.000  0.001  0.022  0.023
   12  0.000  0.000  0.029  0.029
   13  0.000  0.001  0.022  0.023
   14  0.000  0.000  0.019  0.019
   15  0.000  0.001  0.054  0.055
   16  0.000  0.000  0.029  0.029
   17  0.000  0.001  0.054  0.055
   18  0.000  0.000  0.059  0.059
   19  0.000  0.000  0.019  0.019
   20  0.000  0.000  0.006  0.006
   21  0.001  0.000  0.012  0.013
   22  0.001  0.000  0.041  0.042
   23  0.001  0.000  0.012  0.013
   24  0.000  0.000  0.022  0.023
   25  0.000  0.001  0.018  0.019
   26  0.000  0.000  0.019  0.019
   27  0.001  0.000  0.041  0.042
   28  0.000  0.000  0.018  0.018
   29  0.005  0.001  0.007  0.012
   30  0.006  0.000  0.010  0.016
   31  0.005  0.001  0.007  0.012
   32  0.000  0.000  0.007  0.008
   33  0.006  0.000  0.010  0.016
   34  0.000  0.000  0.007  0.008
   35  0.000  0.001  0.016  0.017
   36  0.000  0.001  0.002  0.003
   37  0.000  0.000  0.000  0.000
   38  0.000  0.000  0.000  0.000
tot    0.070  0.017  0.735  0.821
 
band    21 # energy   -5.68142426 # occ.  2.00000000
 
ion      s      p      d    tot
    1  0.023  0.001  0.001  0.025
    2  0.000  0.001  0.026  0.026
    3  0.000  0.001  0.020  0.022
    4  0.000  0.001  0.026  0.026
    5  0.021  0.000  0.014  0.036
    6  0.000  0.001  0.025  0.026
    7  0.000  0.001  0.020  0.022
    8  0.000  0.001  0.025  0.026
    9  0.000  0.000  0.008  0.008
   10  0.000  0.001  0.023  0.024
   11  0.000  0.000  0.031  0.032
   12  0.000  0.000  0.034  0.035
   13  0.000  0.000  0.031  0.032
   14  0.000  0.001  0.040  0.041
   15  0.000  0.000  0.036  0.037
   16  0.000  0.000  0.034  0.035