PROCAR new format
# of k-points:   10         # of bands:  252         # of ions:   39

 k-point     1 :    0.00000000 0.00000000 0.00000000     weight = 0.01562500

band     1 # energy  -23.93074167 # occ.  2.00000000
 
ion      s      p      d    tot
    1  0.000  0.000  0.000  0.000
    2  0.000  0.000  0.000  0.000
    3  0.000  0.000  0.000  0.000
    4  0.000  0.000  0.000  0.000
    5  0.000  0.000  0.000  0.000
    6  0.000  0.000  0.000  0.000
    7  0.000  0.000  0.000  0.000
    8  0.000  0.000  0.000  0.000
    9  0.000  0.000  0.000  0.000
   10  0.000  0.000  0.000  0.000
   11  0.000  0.000  0.000  0.000
   12  0.000  0.000  0.000  0.000
   13  0.000  0.000  0.000  0.000
   14  0.000  0.000  0.000  0.000
   15  0.000  0.000  0.000  0.000
   16  0.000  0.000  0.000  0.000
   17  0.000  0.000  0.000  0.000
   18  0.000  0.000  0.000  0.000
   19  0.000  0.000  0.000  0.000
   20  0.000  0.000  0.000  0.000
   21  0.000  0.000  0.000  0.000
   22  0.000  0.000  0.000  0.000
   23  0.000  0.000  0.000  0.000
   24  0.000  0.000  0.000  0.000
   25  0.000  0.000  0.000  0.000
   26  0.000  0.000  0.000  0.000
   27  0.000  0.000  0.000  0.000
   28  0.000  0.000  0.000  0.000
   29  0.000  0.000  0.000  0.000
   30  0.000  0.000  0.000  0.000
   31  0.000  0.000  0.000  0.000
   32  0.000  0.000  0.000  0.000
   33  0.000  0.000  0.000  0.000
   34  0.000  0.000  0.000  0.000
   35  0.000  0.000  0.000  0.000
   36  0.000  0.000  0.000  0.000
   37  0.079  0.059  0.000  0.138
   38  0.725  0.008  0.000  0.732
   39  0.061  0.013  0.000  0.075
tot    0.866  0.079  0.000  0.945
 
band     2 # energy  -14.62348250 # occ.  2.00000000
 
ion      s      p      d    tot
    1  0.000  0.000  0.000  0.000
    2  0.000  0.000  0.000  0.000
    3  0.000  0.000  0.000  0.000
    4  0.000  0.000  0.000  0.000
    5  0.000  0.000  0.000  0.000
    6  0.000  0.000  0.000  0.000
    7  0.000  0.000  0.000  0.000
    8  0.000  0.000  0.000  0.000
    9  0.000  0.000  0.000  0.000
   10  0.000  0.000  0.000  0.000
   11  0.000  0.000  0.000  0.000
   12  0.000  0.000  0.000  0.000
   13  0.000  0.000  0.000  0.000
   14  0.000  0.000  0.000  0.000
   15  0.000  0.000  0.000  0.000
   16  0.000  0.000  0.000  0.000
   17  0.000  0.000  0.000  0.000
   18  0.000  0.000  0.000  0.000
   19  0.000  0.000  0.000  0.000
   20  0.000  0.000  0.000  0.000
   21  0.000  0.000  0.000  0.000
   22  0.000  0.000  0.000  0.000
   23  0.000  0.000  0.000  0.000
   24  0.000  0.000  0.000  0.000
   25  0.000  0.000  0.000  0.000
   26  0.000  0.000  0.000  0.000
   27  0.000  0.000  0.000  0.000
   28  0.000  0.000  0.000  0.000
   29  0.000  0.000  0.000  0.000
   30  0.000  0.000  0.000  0.000
   31  0.000  0.000  0.000  0.000
   32  0.000  0.000  0.000  0.000
   33  0.000  0.000  0.000  0.000
   34  0.000  0.000  0.000  0.000
   35  0.000  0.000  0.000  0.000
   36  0.003  0.002  0.004  0.009
   37  0.159  0.050  0.000  0.209
   38  0.018  0.524  0.000  0.542
   39  0.203  0.033  0.000  0.236
tot    0.384  0.609  0.004  0.996
 
band     3 # energy   -8.63577323 # occ.  2.00000000
 
ion      s      p      d    tot
    1  0.004  0.000  0.000  0.005
    2  0.004  0.000  0.000  0.004
    3  0.004  0.000  0.000  0.004
    4  0.004  0.000  0.000  0.004
    5  0.004  0.000  0.000  0.005
    6  0.004  0.000  0.000  0.004
    7  0.004  0.000  0.000  0.004
    8  0.004  0.000  0.000  0.004
    9  0.004  0.000  0.000  0.004
   10  0.019  0.000  0.000  0.019
   11  0.020  0.000  0.000  0.020
   12  0.019  0.000  0.000  0.019
   13  0.020  0.000  0.000  0.020
   14  0.020  0.000  0.000  0.020
   15  0.018  0.000  0.000  0.018
   16  0.019  0.000  0.000  0.019
   17  0.018  0.000  0.000  0.018
   18  0.018  0.000  0.000  0.018
   19  0.020  0.000  0.000  0.020
   20  0.033  0.000  0.001  0.035
   21  0.033  0.000  0.001  0.035
   22  0.021  0.000  0.000  0.021
   23  0.033  0.000  0.001  0.035
   24  0.021  0.000  0.000  0.021
   25  0.020  0.000  0.000  0.020
   26  0.020  0.000  0.000  0.020
   27  0.021  0.000  0.000  0.021
   28  0.005  0.000  0.000  0.005
   29  0.008  0.001  0.000  0.009
   30  0.008  0.001  0.000  0.009
   31  0.008  0.001  0.000  0.009
   32  0.008  0.001  0.000  0.009
   33  0.008  0.001  0.000  0.009
   34  0.008  0.001  0.000  0.009
   35  0.005  0.000  0.000  0.005
   36  0.056  0.001  0.017  0.074
   37  0.017  0.019  0.000  0.035
   38  0.001  0.007  0.000  0.008
   39  0.002  0.000  0.000  0.002
tot    0.564  0.036  0.025  0.625
 
band     4 # energy   -7.90979819 # occ.  2.00000000
 
ion      s      p      d    tot
    1  0.007  0.000  0.000  0.007
    2  0.007  0.000  0.000  0.008
    3  0.007  0.000  0.000  0.008
    4  0.007  0.000  0.000  0.008
    5  0.007  0.000  0.000  0.007
    6  0.007  0.000  0.000  0.008
    7  0.007  0.000  0.000  0.008
    8  0.007  0.000  0.000  0.008
    9  0.008  0.000  0.000  0.008
   10  0.012  0.000  0.001  0.013
   11  0.012  0.000  0.001  0.013
   12  0.012  0.000  0.001  0.013
   13  0.012  0.000  0.001  0.013
   14  0.012  0.000  0.001  0.013
   15  0.016  0.000  0.001  0.016
   16  0.012  0.000  0.001  0.013
   17  0.016  0.000  0.001  0.016
   18  0.016  0.000  0.001  0.016
   19  0.001  0.000  0.000  0.002
   20  0.002  0.003  0.007  0.012
   21  0.002  0.003  0.007  0.012
   22  0.001  0.001  0.000  0.002
   23  0.002  0.003  0.007  0.012
   24  0.001  0.001  0.000  0.002
   25  0.001  0.000  0.000  0.002
   26  0.001  0.000  0.000  0.002
   27  0.001  0.001  0.000  0.002
   28  0.001  0.000  0.001  0.001
   29  0.005  0.001  0.003  0.008
   30  0.005  0.001  0.003  0.008
   31  0.005  0.001  0.003  0.008
   32  0.005  0.001  0.003  0.008
   33  0.005  0.001  0.003  0.008
   34  0.005  0.001  0.003  0.008
   35  0.000  0.000  0.001  0.001
   36  0.133  0.022  0.095  0.250
   37  0.093  0.093  0.000  0.187
   38  0.007  0.029  0.000  0.036
   39  0.008  0.001  0.000  0.009
tot    0.465  0.166  0.143  0.773
 
band     5 # energy   -7.16492519 # occ.  2.00000000
 
ion      s      p      d    tot
    1  0.015  0.000  0.001  0.017
    2  0.013  0.000  0.001  0.014
    3  0.013  0.000  0.001  0.014
    4  0.013  0.000  0.001  0.014
    5  0.012  0.000  0.001  0.014
    6  0.013  0.000  0.001  0.014
    7  0.013  0.000  0.001  0.014
    8  0.013  0.000  0.001  0.014
    9  0.011  0.000  0.001  0.013
   10  0.006  0.001  0.001  0.009
   11  0.005  0.001  0.002  0.008
   12  0.006  0.001  0.001  0.009
   13  0.005  0.001  0.002  0.008
   14  0.005  0.001  0.002  0.008
   15  0.003  0.002  0.002  0.007
   16  0.006  0.001  0.001  0.009
   17  0.003  0.002  0.002  0.007
   18  0.003  0.002  0.002  0.007
   19  0.017  0.001  0.005  0.022
   20  0.007  0.001  0.011  0.018
   21  0.007  0.001  0.011  0.018
   22  0.023  0.001  0.004  0.028
   23  0.007  0.001  0.011  0.018
   24  0.023  0.001  0.004  0.028
   25  0.017  0.001  0.005  0.022
   26  0.017  0.001  0.005  0.022
   27  0.023  0.001  0.004  0.028
   28  0.012  0.001  0.000  0.013
   29  0.007  0.001  0.002  0.009
   30  0.007  0.001  0.002  0.009
   31  0.007  0.001  0.002  0.009
   32  0.007  0.001  0.002  0.009
   33  0.007  0.001  0.002  0.009
   34  0.007  0.001  0.002  0.009
   35  0.013  0.001  0.000  0.014
   36  0.013  0.016  0.066  0.095
   37  0.044  0.039  0.000  0.083
   38  0.003  0.010  0.000  0.013
   39  0.003  0.000  0.000  0.003
tot    0.426  0.093  0.162  0.681
 
band     6 # energy   -6.73863330 # occ.  2.00000000
 
ion      s      p      d    tot
    1  0.000  0.000  0.000  0.000
    2  0.000  0.000  0.000  0.000
    3  0.000  0.000  0.000  0.000
    4  0.000  0.000  0.000  0.000
    5  0.000  0.000  0.000  0.000
    6  0.000  0.000  0.000  0.000
    7  0.000  0.000  0.000  0.000
    8  0.000  0.000  0.000  0.000
    9  0.000  0.000  0.000  0.000
   10  0.000  0.000  0.000  0.001
   11  0.000  0.000  0.000  0.000
   12  0.000  0.000  0.000  0.000
   13  0.000  0.000  0.000  0.000
   14  0.000  0.000  0.000  0.000
   15  0.000  0.000  0.000  0.000
   16  0.000  0.000  0.000  0.000
   17  0.000  0.000  0.000  0.000
   18  0.000  0.000  0.000  0.000
   19  0.000  0.000  0.000  0.001
   20  0.001  0.000  0.001  0.002
   21  0.000  0.000  0.001  0.001
   22  0.000  0.000  0.000  0.000
   23  0.000  0.000  0.001  0.001
   24  0.000  0.000  0.000  0.000
   25  0.000  0.000  0.000  0.000
   26  0.000  0.000  0.000  0.001
   27  0.000  0.000  0.000  0.000
   28  0.000  0.000  0.000  0.000
   29  0.001  0.000  0.002  0.004
   30  0.000  0.000  0.001  0.001
   31  0.001  0.000  0.002  0.004
   32  0.002  0.000  0.002  0.004
   33  0.000  0.000  0.001  0.001
   34  0.002  0.000  0.002  0.004
   35  0.000  0.000  0.000  0.000
   36  0.000  0.003  0.025  0.027
   37  0.000  0.117  0.000  0.117
   38  0.000  0.502  0.000  0.502
   39  0.000  0.007  0.000  0.007
tot    0.008  0.630  0.042  0.680
 
band     7 # energy   -6.73847672 # occ.  2.00000000
 
ion      s      p      d    tot
    1  0.000  0.000  0.000  0.000
    2  0.000  0.000  0.000  0.000
    3  0.000  0.000  0.000  0.000
    4  0.000  0.000  0.000  0.000
    5  0.000  0.000  0.000  0.000
    6  0.000  0.000  0.000  0.000
    7  0.000  0.000  0.000  0.000
    8  0.000  0.000  0.000  0.000
    9  0.000  0.000  0.000  0.000
   10  0.000  0.000  0.000  0.000
   11  0.000  0.000  0.000  0.000
   12  0.000  0.000  0.000  0.000
   13  0.000  0.000  0.000  0.000
   14  0.000  0.000  0.000  0.000
   15  0.000  0.000  0.000  0.000
   16  0.000  0.000  0.000  0.000
   17  0.000  0.000  0.000  0.000
   18  0.000  0.000  0.000  0.000
   19  0.000  0.000  0.000  0.000
   20  0.000  0.000  0.001  0.001
   21  0.001  0.000  0.001  0.002
   22  0.000  0.000  0.000  0.000
   23  0.001  0.000  0.001  0.002
   24  0.000  0.000  0.000  0.000
   25  0.000  0.000  0.001  0.001
   26  0.000  0.000  0.000  0.000
   27  0.000  0.000  0.000  0.000
   28  0.000  0.000  0.000  0.000
   29  0.001  0.000  0.001  0.002
   30  0.002  0.001  0.003  0.005
   31  0.001  0.000  0.001  0.002
   32  0.000  0.000  0.001  0.002
   33  0.002  0.001  0.003  0.005
   34  0.000  0.000  0.001  0.002
   35  0.000  0.000  0.000  0.000
   36  0.000  0.003  0.025  0.027
   37  0.000  0.117  0.000  0.117
   38  0.000  0.502  0.000  0.502
   39  0.000  0.007  0.000  0.007
tot    0.008  0.630  0.042  0.680
 
band     8 # energy   -6.43694759 # occ.  2.00000000
 
ion      s      p      d    tot
    1  0.001  0.000  0.007  0.009
    2  0.006  0.000  0.005  0.012
    3  0.006  0.000  0.005  0.012
    4  0.006  0.000  0.005  0.012
    5  0.005  0.000  0.004  0.008
    6  0.006  0.000  0.005  0.012
    7  0.006  0.000  0.005  0.012
    8  0.006  0.000  0.005  0.012
    9  0.018  0.000  0.003  0.021
   10  0.007  0.001  0.006  0.013
   11  0.004  0.001  0.004  0.009
   12  0.007  0.001  0.006  0.013
   13  0.004  0.001  0.004  0.009
   14  0.004  0.001  0.004  0.009
   15  0.003  0.001  0.004  0.008
   16  0.007  0.001  0.006  0.013
   17  0.003  0.001  0.004  0.008
   18  0.003  0.001  0.004  0.008
   19  0.003  0.001  0.015  0.019
   20  0.020  0.002  0.023  0.044
   21  0.020  0.002  0.023  0.044
   22  0.001  0.001  0.009  0.011
   23  0.020  0.002  0.023  0.044
   24  0.001  0.001  0.009  0.011
   25  0.003  0.001  0.015  0.019
   26  0.003  0.001  0.015  0.019
   27  0.001  0.001  0.009  0.011
   28  0.015  0.000  0.007  0.022
   29  0.018  0.000  0.013  0.031
   30  0.018  0.000  0.013  0.031
   31  0.018  0.000  0.013  0.031
   32  0.018  0.000  0.013  0.031
   33  0.018  0.000  0.013  0.031
   34  0.018  0.000  0.013  0.031
   35  0.028  0.000  0.008  0.036
   36  0.003  0.003  0.023  0.029
   37  0.000  0.000  0.000  0.000
   38  0.000  0.000  0.000  0.000
   39  0.000  0.000  0.000  0.000
tot    0.326  0.026  0.344  0.696
 
band     9 # energy   -6.42306546 # occ.  2.00000000
 
ion      s      p      d    tot
    1  0.000  0.000  0.007  0.008
    2  0.002  0.001  0.002  0.005
    3  0.000  0.000  0.003  0.003
    4  0.003  0.001  0.002  0.006
    5  0.000  0.001  0.005  0.006
    6  0.006  0.001  0.003  0.009
    7  0.001  0.000  0.003  0.004
    8  0.005  0.001  0.003  0.009
    9  0.000  0.000  0.001  0.001
   10  0.034  0.002  0.006  0.042
   11  0.010  0.003  0.021  0.034
   12  0.010  0.001  0.023  0.034
   13  0.013  0.003  0.020  0.036
   14  0.045  0.001  0.011  0.057
   15  0.000  0.002  0.006  0.008
   16  0.007  0.000  0.025  0.033
   17  0.000  0.002  0.006  0.009
   18  0.001  0.000  0.010  0.011
   19  0.002  0.003  0.005  0.010
   20  0.070  0.001  0.013  0.084
   21  0.020  0.002  0.030  0.053
   22  0.005  0.001  0.021  0.026
   23  0.015  0.002  0.032  0.049
   24  0.016  0.002  0.005  0.022
   25  0.010  0.000  0.013  0.024
   26  0.003  0.003  0.006  0.012
   27  0.003  0.001  0.022  0.026
   28  0.000  0.000  0.001  0.002
   29  0.008  0.001  0.005  0.014
   30  0.002  0.001  0.003  0.006
   31  0.008  0.001  0.005  0.014
   32  0.002  0.001  0.003  0.006
   33  0.002  0.001  0.003  0.005
   34  0.002  0.000  0.002  0.005
   35  0.000  0.000  0.004  0.004
   36  0.000  0.005  0.010  0.015
   37  0.000  0.000  0.000  0.000
   38  0.000  0.003  0.000  0.003
   39  0.000  0.000  0.000  0.000
tot    0.307  0.048  0.341  0.695
 
band    10 # energy   -6.42306232 # occ.  2.00000000
 
ion      s      p      d    tot
    1  0.000  0.000  0.007  0.008
    2  0.003  0.001  0.003  0.007
    3  0.005  0.001  0.003  0.009
    4  0.003  0.001  0.003  0.007
    5  0.000  0.001  0.005  0.006
    6  0.000  0.000  0.002  0.003
    7  0.005  0.001  0.002  0.009
    8  0.000  0.000  0.002  0.003
    9  0.000  0.000  0.001  0.001
   10  0.000  0.000  0.030  0.030
   11  0.036  0.001  0.013  0.051
   12  0.024  0.002  0.013  0.039
   13  0.032  0.002  0.014  0.048
   14  0.000  0.004  0.024  0.027
   15  0.001  0.001  0.009  0.011
   16  0.027  0.002  0.011  0.040
   17  0.001  0.001  0.009  0.010
   18  0.000  0.003  0.004  0.007
   19  0.008  0.001  0.011  0.020
   20  0.000  0.002  0.037  0.040
   21  0.050  0.001  0.020  0.071
   22  0.011  0.001  0.011  0.024
   23  0.055  0.001  0.018  0.075
   24  0.000  0.000  0.027  0.027
   25  0.000  0.004  0.002  0.007
   26  0.007  0.001  0.010  0.019
   27  0.013  0.001  0.009  0.023
   28  0.000  0.000  0.001  0.002
   29  0.000  0.000  0.002  0.003
   30  0.006  0.001  0.004  0.010
   31  0.000  0.000  0.002  0.003
   32  0.005  0.001  0.005  0.011
   33  0.006  0.001  0.004  0.011
   34  0.006  0.001  0.005  0.012
   35  0.000  0.000  0.004  0.004
   36  0.000  0.005  0.010  0.015
   37  0.000  0.000  0.000  0.000
   38  0.000  0.003  0.000  0.003
   39  0.000  0.000  0.000  0.000
tot    0.307  0.048  0.341  0.695
 
band    11 # energy   -6.38107389 # occ.  2.00000000
 
ion      s      p      d    tot
    1  0.016  0.000  0.015  0.031
    2  0.012  0.000  0.014  0.026
    3  0.012  0.000  0.014  0.026
    4  0.012  0.000  0.014  0.026
    5  0.006  0.000  0.015  0.022
    6  0.012  0.000  0.014  0.026
    7  0.012  0.000  0.014  0.026
    8  0.012  0.000  0.014  0.026
    9  0.016  0.000  0.011  0.027
   10  0.003  0.000  0.029  0.032
   11  0.015  0.000  0.021  0.036
   12  0.003  0.000  0.029  0.032
   13  0.015  0.000  0.021  0.036
   14  0.015  0.000  0.021  0.036
   15  0.004  0.000  0.025  0.030
   16  0.003  0.000  0.029  0.032
   17  0.004  0.000  0.025  0.030
   18  0.004  0.000  0.025  0.030
   19  0.008  0.000  0.010  0.018
   20  0.001  0.000  0.025  0.027
   21  0.001  0.000  0.025  0.027
   22  0.001  0.000  0.014  0.015
   23  0.001  0.000  0.025  0.027
   24  0.001  0.000  0.014  0.015
   25  0.008  0.000  0.010  0.018
   26  0.008  0.000  0.010  0.018
   27  0.001  0.000  0.014  0.015
   28  0.000  0.000  0.003  0.003
   29  0.002  0.000  0.004  0.006
   30  0.002  0.000  0.004  0.006
   31  0.002  0.000  0.004  0.006
   32  0.002  0.000  0.004  0.006
   33  0.002  0.000  0.004  0.006
   34  0.002  0.000  0.004  0.006
   35  0.003  0.000  0.002  0.004
   36  0.002  0.000  0.008  0.010
   37  0.000  0.000  0.000  0.000
   38  0.000  0.000  0.000  0.000
   39  0.000  0.000  0.000  0.000
tot    0.225  0.005  0.528  0.758
 
band    12 # energy   -6.33716075 # occ.  2.00000000
 
ion      s      p      d    tot
    1  0.000  0.000  0.002  0.002
    2  0.002  0.001  0.008  0.010
    3  0.002  0.001  0.008  0.010
    4  0.002  0.001  0.008  0.010
    5  0.027  0.002  0.000  0.029
    6  0.002  0.001  0.008  0.010
    7  0.002  0.001  0.008  0.010
    8  0.002  0.001  0.008  0.010
    9  0.001  0.001  0.007  0.009
   10  0.012  0.002  0.010  0.025
   11  0.019  0.002  0.013  0.035
   12  0.012  0.002  0.010  0.025
   13  0.019  0.002  0.013  0.035
   14  0.020  0.002  0.013  0.035
   15  0.014  0.000  0.026  0.039
   16  0.012  0.002  0.010  0.025
   17  0.014  0.000  0.026  0.039
   18  0.014  0.000  0.026  0.039
   19  0.018  0.001  0.012  0.031
   20  0.014  0.002  0.009  0.026
   21  0.014  0.002  0.009  0.026
   22  0.000  0.001  0.022  0.023
   23  0.014  0.002  0.009  0.026
   24  0.000  0.001  0.022  0.023
   25  0.018  0.001  0.012  0.031
   26  0.018  0.001  0.012  0.031
   27  0.000  0.001  0.022  0.023
   28  0.006  0.001  0.002  0.009
   29  0.000  0.000  0.005  0.006
   30  0.000  0.000  0.005  0.006
   31  0.000  0.000  0.005  0.006
   32  0.000  0.000  0.005  0.006
   33  0.000  0.000  0.005  0.006
   34  0.000  0.000  0.005  0.006
   35  0.002  0.000  0.000  0.002
   36  0.002  0.004  0.008  0.014
   37  0.003  0.003  0.000  0.006
   38  0.000  0.001  0.000  0.001
   39  0.000  0.000  0.000  0.000
tot    0.290  0.043  0.373  0.706
 
band    13 # energy   -6.31189564 # occ.  2.00000000
 
ion      s      p      d    tot
    1  0.000  0.001  0.003  0.004
    2  0.004  0.001  0.004  0.009
    3  0.008  0.001  0.004  0.013
    4  0.004  0.001  0.004  0.009
    5  0.000  0.000  0.005  0.005
    6  0.001  0.000  0.003  0.004
    7  0.008  0.001  0.004  0.013
    8  0.001  0.000  0.003  0.004
    9  0.000  0.001  0.011  0.012
   10  0.024  0.000  0.016  0.041
   11  0.002  0.001  0.021  0.025
   12  0.006  0.004  0.006  0.016
   13  0.002  0.001  0.021  0.025
   14  0.009  0.001  0.007  0.018
   15  0.016  0.001  0.033  0.050
   16  0.006  0.003  0.007  0.016
   17  0.015  0.001  0.033  0.049
   18  0.063  0.002  0.006  0.071
   19  0.010  0.001  0.027  0.038
   20  0.000  0.001  0.015  0.016
   21  0.000  0.002  0.012  0.014
   22  0.009  0.003  0.016  0.027
   23  0.000  0.002  0.012  0.014
   24  0.036  0.001  0.011  0.048
   25  0.038  0.002  0.003  0.043
   26  0.009  0.001  0.028  0.037
   27  0.009  0.003  0.015  0.028
   28  0.000  0.000  0.006  0.006
   29  0.000  0.000  0.002  0.002
   30  0.002  0.000  0.001  0.004
   31  0.000  0.000  0.002  0.002
   32  0.004  0.001  0.003  0.007
   33  0.002  0.000  0.001  0.004
   34  0.004  0.001  0.003  0.007
   35  0.000  0.001  0.004  0.004
   36  0.000  0.000  0.001  0.001
   37  0.000  0.001  0.000  0.001
   38  0.000  0.004  0.000  0.004
   39  0.000  0.000  0.000  0.000
tot    0.295  0.046  0.353  0.693
 
band    14 # energy   -6.31186636 # occ.  2.00000000
 
ion      s      p      d    tot
    1  0.000  0.001  0.003  0.004
    2  0.004  0.001  0.003  0.009
    3  0.001  0.000  0.004  0.005
    4  0.004  0.001  0.003  0.008
    5  0.000  0.000  0.005  0.005
    6  0.008  0.001  0.004  0.014
    7  0.001  0.000  0.004  0.005
    8  0.008  0.001  0.004  0.014
    9  0.000  0.001  0.011  0.012
   10  0.000  0.005  0.003  0.008
   11  0.007  0.001  0.012  0.020
   12  0.018  0.001  0.013  0.033
   13  0.007  0.001  0.012  0.020
   14  0.000  0.001  0.026  0.027
   15  0.047  0.001  0.015  0.063
   16  0.018  0.001  0.013  0.032
   17  0.048  0.001  0.015  0.064
   18  0.000  0.001  0.042  0.043
   19  0.028  0.002  0.011  0.041
   20  0.000  0.002  0.011  0.013
   21  0.000  0.001  0.014  0.015
   22  0.027  0.001  0.013  0.041
   23  0.000  0.001  0.014  0.015
   24  0.000  0.004  0.017  0.021
   25  0.000  0.000  0.035  0.036
   26  0.029  0.002  0.011  0.042
   27  0.027  0.001  0.013  0.041
   28  0.000  0.000  0.006  0.006
   29  0.004  0.001  0.002  0.007
   30  0.002  0.000  0.003  0.005
   31  0.004  0.001  0.002  0.007
   32  0.000  0.000  0.001  0.002
   33  0.002  0.000  0.003  0.005
   34  0.000  0.000  0.001  0.002
   35  0.000  0.001  0.004  0.004
   36  0.000  0.000  0.001  0.001
   37  0.000  0.001  0.000  0.001
   38  0.000  0.004  0.000  0.004
   39  0.000  0.000  0.000  0.000
tot    0.295  0.046  0.353  0.693
 
band    15 # energy   -6.29980984 # occ.  2.00000000
 
ion      s      p      d    tot
    1  0.019  0.001  0.000  0.021
    2  0.001  0.001  0.005  0.007
    3  0.001  0.001  0.005  0.007
    4  0.001  0.001  0.005  0.007
    5  0.000  0.000  0.003  0.003
    6  0.001  0.001  0.005  0.007
    7  0.001  0.001  0.005  0.007
    8  0.001  0.001  0.005  0.007
    9  0.003  0.001  0.002  0.006
   10  0.015  0.001  0.018  0.034
   11  0.001  0.001  0.021  0.023
   12  0.015  0.001  0.018  0.034
   13  0.001  0.001  0.021  0.023
   14  0.001  0.001  0.021  0.023
   15  0.021  0.003  0.002  0.025
   16  0.015  0.001  0.018  0.034
   17  0.021  0.003  0.002  0.025
   18  0.020  0.003  0.002  0.025
   19  0.003  0.002  0.007  0.012
   20  0.001  0.001  0.022  0.024
   21  0.001  0.001  0.023  0.024
   22  0.025  0.002  0.007  0.034
   23  0.001  0.001  0.023  0.024
   24  0.025  0.002  0.007  0.034
   25  0.003  0.002  0.007  0.012
   26  0.003  0.002  0.007  0.012
   27  0.025  0.002  0.007  0.034
   28  0.016  0.000  0.004  0.021
   29  0.007  0.000  0.008  0.015
   30  0.007  0.000  0.008  0.015
   31  0.007  0.000  0.008  0.015
   32  0.007  0.000  0.008  0.015
   33  0.007  0.000  0.008  0.015
   34  0.007  0.000  0.008  0.015
   35  0.000  0.001  0.010  0.011
   36  0.001  0.007  0.033  0.040
   37  0.014  0.011  0.000  0.025
   38  0.001  0.002  0.000  0.003
   39  0.001  0.000  0.000  0.001
tot    0.297  0.057  0.361  0.715
 
band    16 # energy   -5.93601392 # occ.  2.00000000
 
ion      s      p      d    tot
    1  0.000  0.001  0.004  0.005
    2  0.001  0.001  0.005  0.006
    3  0.009  0.001  0.004  0.015
    4  0.001  0.001  0.005  0.007
    5  0.000  0.001  0.009  0.011
    6  0.004  0.001  0.003  0.008
    7  0.009  0.001  0.004  0.015
    8  0.004  0.001  0.003  0.008
    9  0.000  0.000  0.008  0.008
   10  0.000  0.001  0.050  0.051
   11  0.019  0.001  0.019  0.039
   12  0.007  0.001  0.018  0.027
   13  0.019  0.001  0.019  0.039
   14  0.000  0.000  0.046  0.046
   15  0.002  0.000  0.018  0.021
   16  0.007  0.001  0.018  0.027
   17  0.002  0.000  0.018  0.021
   18  0.000  0.001  0.011  0.012
   19  0.003  0.000  0.017  0.020
   20  0.000  0.000  0.088  0.088
   21  0.013  0.001  0.027  0.041
   22  0.003  0.001  0.019  0.023
   23  0.013  0.001  0.027  0.041
   24  0.000  0.001  0.029  0.030
   25  0.000  0.001  0.010  0.011
   26  0.003  0.000  0.017  0.020
   27  0.003  0.001  0.019  0.023
   28  0.000  0.000  0.008  0.008
   29  0.005  0.001  0.006  0.011
   30  0.009  0.001  0.006  0.016
   31  0.005  0.001  0.006  0.011
   32  0.001  0.000  0.004  0.005
   33  0.009  0.001  0.006  0.016
   34  0.001  0.000  0.004  0.005
   35  0.000  0.000  0.002  0.003
   36  0.000  0.004  0.010  0.014
   37  0.000  0.000  0.000  0.000
   38  0.000  0.000  0.000  0.000
   39  0.000  0.000  0.000  0.000
tot    0.153  0.032  0.567  0.752
 
band    17 # energy   -5.93597657 # occ.  2.00000000
 
ion      s      p      d    tot
    1  0.000  0.001  0.004  0.005
    2  0.008  0.001  0.004  0.013
    3  0.000  0.000  0.004  0.005
    4  0.008  0.001  0.004  0.013
    5  0.000  0.001  0.009  0.011
    6  0.006  0.001  0.005  0.012
    7  0.000  0.000  0.004  0.005
    8  0.006  0.001  0.005  0.012
    9  0.000  0.000  0.008  0.008
   10  0.010  0.002  0.008  0.019
   11  0.006  0.000  0.037  0.044
   12  0.002  0.001  0.040  0.043
   13  0.006  0.000  0.037  0.044
   14  0.025  0.001  0.010  0.036
   15  0.001  0.001  0.013  0.015
   16  0.003  0.001  0.039  0.043
   17  0.001  0.001  0.013  0.015
   18  0.002  0.000  0.021  0.024
   19  0.001  0.001  0.012  0.014
   20  0.018  0.001  0.006  0.026
   21  0.004  0.000  0.068  0.073
   22  0.001  0.001  0.026  0.028
   23  0.004  0.000  0.068  0.073
   24  0.004  0.002  0.015  0.021
   25  0.004  0.000  0.019  0.023
   26  0.001  0.001  0.012  0.014
   27  0.001  0.001  0.026  0.028
   28  0.000  0.000  0.008  0.008
   29  0.005  0.001  0.004  0.010
   30  0.000  0.000  0.004  0.005
   31  0.005  0.001  0.004  0.010
   32  0.009  0.001  0.006  0.017
   33  0.000  0.000  0.004  0.005
   34  0.009  0.001  0.006  0.017
   35  0.000  0.000  0.002  0.003
   36  0.000  0.004  0.010  0.014
   37  0.000  0.000  0.000  0.000
   38  0.000  0.000  0.000  0.000
   39  0.000  0.000  0.000  0.000
tot    0.153  0.032  0.567  0.752
 
band    18 # energy   -5.92138773 # occ.  2.00000000
 
ion      s      p      d    tot
    1  0.017  0.002  0.002  0.021
    2  0.000  0.001  0.007  0.007
    3  0.000  0.001  0.007  0.007
    4  0.000  0.001  0.007  0.007
    5  0.001  0.000  0.002  0.004
    6  0.000  0.001  0.007  0.007
    7  0.000  0.001  0.007  0.007
    8  0.000  0.001  0.007  0.007
    9  0.009  0.001  0.000  0.009
   10  0.009  0.001  0.010  0.020
   11  0.006  0.000  0.036  0.042
   12  0.009  0.001  0.010  0.020
   13  0.006  0.000  0.036  0.042
   14  0.006  0.000  0.035  0.042
   15  0.001  0.001  0.028  0.029
   16  0.009  0.001  0.010  0.020
   17  0.001  0.001  0.028  0.029
   18  0.001  0.001  0.027  0.029
   19  0.006  0.001  0.006  0.013
   20  0.000  0.000  0.054  0.054
   21  0.000  0.000  0.054  0.054
   22  0.010  0.001  0.028  0.038
   23  0.000  0.000  0.054  0.054
   24  0.010  0.001  0.028  0.039
   25  0.006  0.001  0.006  0.013
   26  0.006  0.001  0.006  0.013
   27  0.010  0.001  0.028  0.038
   28  0.017  0.001  0.000  0.018
   29  0.000  0.001  0.009  0.010
   30  0.000  0.001  0.009  0.010
   31  0.000  0.001  0.009  0.010
   32  0.000  0.001  0.009  0.010
   33  0.000  0.001  0.009  0.010
   34  0.000  0.001  0.009  0.010
   35  0.001  0.001  0.004  0.006
   36  0.004  0.001  0.004  0.008
   37  0.000  0.000  0.000  0.001
   38  0.000  0.000  0.000  0.000
   39  0.000  0.000  0.000  0.000
tot    0.143  0.027  0.589  0.759
 
band    19 # energy   -5.83846888 # occ.  2.00000000
 
ion      s      p      d    tot
    1  0.000  0.001  0.014  0.015
    2  0.009  0.001  0.004  0.014
    3  0.001  0.000  0.005  0.006
    4  0.009  0.001  0.004  0.014
    5  0.000  0.000  0.006  0.006
    6  0.004  0.001  0.005  0.010
    7  0.001  0.000  0.005  0.006
    8  0.004  0.001  0.005  0.010
    9  0.000  0.001  0.006  0.007
   10  0.000  0.001  0.033  0.033
   11  0.000  0.001  0.020  0.021
   12  0.009  0.000  0.021  0.030
   13  0.000  0.001  0.020  0.021
   14  0.000  0.001  0.016  0.017
   15  0.010  0.002  0.020  0.031
   16  0.009  0.000  0.021  0.030
   17  0.010  0.002  0.019  0.031
   18  0.000  0.000  0.060  0.060
   19  0.014  0.001  0.020  0.035
   20  0.000  0.002  0.022  0.024
   21  0.000  0.001  0.026  0.026
   22  0.017  0.001  0.020  0.037
   23  0.000  0.001  0.026  0.026
   24  0.000  0.001  0.029  0.029
   25  0.000  0.000  0.067  0.067
   26  0.014  0.001  0.020  0.035
   27  0.017  0.001  0.020  0.037
   28  0.000  0.001  0.005  0.006
   29  0.005  0.001  0.004  0.010
   30  0.000  0.000  0.006  0.007
   31  0.005  0.001  0.004  0.010
   32  0.005  0.001  0.003  0.009
   33  0.000  0.000  0.006  0.007
   34  0.005  0.001  0.003  0.009
   35  0.000  0.001  0.008  0.009
   36  0.000  0.000  0.004  0.004
   37  0.000  0.000  0.000  0.000
   38  0.000  0.000  0.000  0.000
   39  0.000  0.000  0.000  0.000
tot    0.148  0.028  0.573  0.750
 
band    20 # energy   -5.83844308 # occ.  2.00000000
 
ion      s      p      d    tot
    1  0.000  0.001  0.014  0.015
    2  0.000  0.001  0.005  0.006
    3  0.009  0.001  0.005  0.014
    4  0.000  0.001  0.005  0.006
    5  0.000  0.000  0.006  0.006
    6  0.005  0.001  0.004  0.010
    7  0.009  0.001  0.005  0.014
    8  0.005  0.001  0.004  0.010
    9  0.000  0.001  0.006  0.007
   10  0.012  0.000  0.017  0.029
   11  0.000  0.001  0.017  0.018
   12  0.003  0.001  0.029  0.032
   13  0.000  0.001  0.017  0.018
   14  0.000  0.001  0.021  0.022
   15  0.003  0.001  0.046  0.050
   16  0.003  0.001  0.029  0.032
   17  0.003  0.001  0.046  0.050
   18  0.013  0.002  0.006  0.022
   19  0.005  0.001  0.051  0.056
   20  0.000  0.000  0.027  0.027
   21  0.000  0.001  0.023  0.025
   22  0.006  0.001  0.026  0.032
   23  0.000  0.001  0.023  0.025
   24  0.022  0.001  0.017  0.040
   25  0.019  0.001  0.004  0.024
   26  0.005  0.001  0.051  0.056
   27  0.006  0.001  0.026  0.032
   28  0.000  0.001  0.005  0.006
   29  0.002  0.000  0.005  0.007
   30  0.007  0.001  0.002  0.010
   31  0.002  0.000  0.005  0.007
   32  0.002  0.001  0.005  0.008
   33  0.007  0.001  0.002  0.010
   34  0.002  0.001  0.005  0.008
   35  0.000  0.001  0.008  0.009
   36  0.000  0.000  0.004  0.004
   37  0.000  0.000  0.000  0.000
   38  0.000  0.000  0.000  0.000
   39  0.000  0.000  0.000  0.000