PROCAR new format
# of k-points:   10         # of bands:  252         # of ions:   38

 k-point     1 :    0.00000000 0.00000000 0.00000000     weight = 0.01562500

band     1 # energy  -23.95650359 # occ.  2.00000000
 
ion      s      p      d    tot
    1  0.000  0.000  0.000  0.000
    2  0.000  0.000  0.000  0.000
    3  0.000  0.000  0.000  0.000
    4  0.000  0.000  0.000  0.000
    5  0.000  0.000  0.000  0.000
    6  0.000  0.000  0.000  0.000
    7  0.000  0.000  0.000  0.000
    8  0.000  0.000  0.000  0.000
    9  0.000  0.000  0.000  0.000
   10  0.000  0.000  0.000  0.000
   11  0.000  0.000  0.000  0.000
   12  0.000  0.000  0.000  0.000
   13  0.000  0.000  0.000  0.000
   14  0.000  0.000  0.000  0.000
   15  0.000  0.000  0.000  0.000
   16  0.000  0.000  0.000  0.000
   17  0.000  0.000  0.000  0.000
   18  0.000  0.000  0.000  0.000
   19  0.000  0.000  0.000  0.000
   20  0.000  0.000  0.000  0.000
   21  0.000  0.000  0.000  0.000
   22  0.000  0.000  0.000  0.000
   23  0.000  0.000  0.000  0.000
   24  0.000  0.000  0.000  0.000
   25  0.000  0.000  0.000  0.000
   26  0.000  0.000  0.000  0.000
   27  0.000  0.000  0.000  0.000
   28  0.000  0.000  0.000  0.000
   29  0.000  0.000  0.000  0.000
   30  0.000  0.000  0.000  0.000
   31  0.000  0.000  0.000  0.000
   32  0.000  0.000  0.000  0.000
   33  0.000  0.000  0.000  0.000
   34  0.000  0.000  0.000  0.000
   35  0.000  0.000  0.000  0.000
   36  0.000  0.000  0.000  0.000
   37  0.157  0.116  0.000  0.273
   38  0.640  0.094  0.000  0.735
tot    0.797  0.211  0.000  1.008
 
band     2 # energy   -9.64341302 # occ.  2.00000000
 
ion      s      p      d    tot
    1  0.001  0.000  0.000  0.002
    2  0.001  0.000  0.000  0.002
    3  0.001  0.000  0.000  0.002
    4  0.001  0.000  0.000  0.002
    5  0.001  0.000  0.000  0.002
    6  0.001  0.000  0.000  0.002
    7  0.001  0.000  0.000  0.002
    8  0.001  0.000  0.000  0.002
    9  0.001  0.000  0.000  0.001
   10  0.006  0.000  0.000  0.006
   11  0.007  0.000  0.000  0.007
   12  0.006  0.000  0.000  0.006
   13  0.007  0.000  0.000  0.007
   14  0.007  0.000  0.000  0.007
   15  0.006  0.000  0.000  0.006
   16  0.006  0.000  0.000  0.006
   17  0.006  0.000  0.000  0.006
   18  0.006  0.000  0.000  0.006
   19  0.009  0.000  0.000  0.009
   20  0.013  0.000  0.000  0.014
   21  0.013  0.000  0.000  0.014
   22  0.009  0.000  0.000  0.009
   23  0.013  0.000  0.000  0.014
   24  0.009  0.000  0.000  0.009
   25  0.009  0.000  0.000  0.009
   26  0.009  0.000  0.000  0.009
   27  0.009  0.000  0.000  0.009
   28  0.003  0.000  0.000  0.004
   29  0.005  0.000  0.000  0.006
   30  0.005  0.000  0.000  0.006
   31  0.005  0.000  0.000  0.006
   32  0.005  0.000  0.000  0.006
   33  0.005  0.000  0.000  0.006
   34  0.005  0.000  0.000  0.006
   35  0.003  0.000  0.000  0.004
   36  0.060  0.007  0.026  0.093
   37  0.175  0.003  0.000  0.178
   38  0.090  0.142  0.000  0.232
tot    0.524  0.157  0.027  0.708
 
band     3 # energy   -9.35532510 # occ.  2.00000000
 
ion      s      p      d    tot
    1  0.005  0.001  0.000  0.006
    2  0.005  0.001  0.000  0.006
    3  0.005  0.001  0.000  0.006
    4  0.005  0.001  0.000  0.006
    5  0.005  0.001  0.000  0.006
    6  0.005  0.001  0.000  0.006
    7  0.005  0.001  0.000  0.006
    8  0.005  0.001  0.000  0.006
    9  0.005  0.001  0.000  0.006
   10  0.018  0.000  0.000  0.018
   11  0.018  0.000  0.000  0.018
   12  0.018  0.000  0.000  0.018
   13  0.018  0.000  0.000  0.018
   14  0.018  0.000  0.000  0.018
   15  0.018  0.000  0.000  0.018
   16  0.018  0.000  0.000  0.018
   17  0.018  0.000  0.000  0.018
   18  0.018  0.000  0.000  0.018
   19  0.016  0.000  0.000  0.016
   20  0.013  0.000  0.000  0.014
   21  0.013  0.000  0.000  0.014
   22  0.015  0.000  0.000  0.015
   23  0.013  0.000  0.000  0.014
   24  0.015  0.000  0.000  0.015
   25  0.016  0.000  0.000  0.016
   26  0.016  0.000  0.000  0.016
   27  0.015  0.000  0.000  0.015
   28  0.004  0.000  0.000  0.004
   29  0.003  0.001  0.000  0.003
   30  0.003  0.001  0.000  0.003
   31  0.003  0.001  0.000  0.003
   32  0.003  0.001  0.000  0.003
   33  0.003  0.001  0.000  0.003
   34  0.003  0.001  0.000  0.003
   35  0.003  0.000  0.000  0.004
   36  0.000  0.012  0.012  0.024
   37  0.092  0.000  0.000  0.092
   38  0.056  0.108  0.000  0.164
tot    0.510  0.132  0.013  0.656
 
band     4 # energy   -8.19761061 # occ.  2.00000000
 
ion      s      p      d    tot
    1  0.017  0.001  0.000  0.018
    2  0.017  0.001  0.000  0.018
    3  0.017  0.001  0.000  0.018
    4  0.017  0.001  0.000  0.018
    5  0.016  0.001  0.000  0.018
    6  0.017  0.001  0.000  0.018
    7  0.017  0.001  0.000  0.018
    8  0.017  0.001  0.000  0.018
    9  0.017  0.001  0.000  0.018
   10  0.011  0.002  0.001  0.013
   11  0.010  0.002  0.001  0.013
   12  0.011  0.002  0.001  0.013
   13  0.010  0.002  0.001  0.013
   14  0.010  0.002  0.001  0.013
   15  0.011  0.002  0.000  0.013
   16  0.011  0.002  0.001  0.013
   17  0.011  0.002  0.000  0.013
   18  0.011  0.002  0.000  0.013
   19  0.008  0.002  0.000  0.010
   20  0.008  0.002  0.000  0.011
   21  0.008  0.002  0.000  0.011
   22  0.008  0.002  0.000  0.010
   23  0.008  0.002  0.000  0.011
   24  0.008  0.002  0.000  0.010
   25  0.008  0.002  0.000  0.010
   26  0.008  0.002  0.000  0.010
   27  0.008  0.002  0.000  0.010
   28  0.017  0.001  0.001  0.019
   29  0.018  0.001  0.001  0.020
   30  0.018  0.001  0.001  0.020
   31  0.018  0.001  0.001  0.020
   32  0.018  0.001  0.001  0.020
   33  0.018  0.001  0.001  0.020
   34  0.018  0.001  0.001  0.020
   35  0.017  0.001  0.001  0.018
   36  0.038  0.001  0.001  0.040
   37  0.003  0.007  0.000  0.009
   38  0.006  0.029  0.000  0.036
tot    0.506  0.086  0.019  0.611
 
band     5 # energy   -6.90854031 # occ.  2.00000000
 
ion      s      p      d    tot
    1  0.003  0.000  0.001  0.004
    2  0.004  0.000  0.001  0.005
    3  0.004  0.000  0.001  0.005
    4  0.004  0.000  0.001  0.005
    5  0.008  0.000  0.000  0.008
    6  0.004  0.000  0.001  0.005
    7  0.004  0.000  0.001  0.005
    8  0.004  0.000  0.001  0.005
    9  0.002  0.000  0.001  0.003
   10  0.000  0.001  0.001  0.003
   11  0.001  0.001  0.001  0.003
   12  0.000  0.001  0.001  0.003
   13  0.001  0.001  0.001  0.003
   14  0.001  0.001  0.001  0.003
   15  0.002  0.002  0.000  0.004
   16  0.000  0.001  0.001  0.003
   17  0.002  0.002  0.000  0.004
   18  0.002  0.002  0.000  0.004
   19  0.012  0.000  0.002  0.014
   20  0.001  0.004  0.006  0.011
   21  0.001  0.004  0.006  0.011
   22  0.008  0.001  0.001  0.011
   23  0.001  0.004  0.006  0.011
   24  0.008  0.001  0.001  0.011
   25  0.012  0.000  0.002  0.014
   26  0.012  0.000  0.002  0.014
   27  0.008  0.001  0.001  0.011
   28  0.001  0.001  0.001  0.003
   29  0.001  0.002  0.002  0.004
   30  0.001  0.002  0.002  0.004
   31  0.001  0.002  0.002  0.004
   32  0.001  0.002  0.002  0.004
   33  0.001  0.002  0.002  0.004
   34  0.001  0.002  0.002  0.004
   35  0.001  0.001  0.001  0.003
   36  0.116  0.012  0.057  0.186
   37  0.017  0.159  0.000  0.177
   38  0.014  0.201  0.000  0.214
tot    0.263  0.413  0.110  0.787
 
band     6 # energy   -6.75491487 # occ.  2.00000000
 
ion      s      p      d    tot
    1  0.000  0.000  0.000  0.000
    2  0.000  0.000  0.000  0.000
    3  0.000  0.000  0.000  0.000
    4  0.000  0.000  0.000  0.000
    5  0.000  0.000  0.000  0.000
    6  0.000  0.000  0.000  0.000
    7  0.000  0.000  0.000  0.000
    8  0.000  0.000  0.000  0.000
    9  0.000  0.000  0.000  0.000
   10  0.000  0.000  0.000  0.000
   11  0.000  0.000  0.000  0.000
   12  0.000  0.000  0.000  0.000
   13  0.000  0.000  0.000  0.000
   14  0.000  0.000  0.000  0.000
   15  0.000  0.000  0.000  0.000
   16  0.000  0.000  0.000  0.000
   17  0.000  0.000  0.000  0.000
   18  0.000  0.000  0.000  0.000
   19  0.000  0.000  0.000  0.000
   20  0.000  0.000  0.000  0.001
   21  0.000  0.000  0.000  0.000
   22  0.000  0.000  0.000  0.000
   23  0.000  0.000  0.000  0.000
   24  0.000  0.000  0.000  0.000
   25  0.000  0.000  0.000  0.000
   26  0.000  0.000  0.000  0.000
   27  0.000  0.000  0.000  0.000
   28  0.000  0.000  0.000  0.000
   29  0.000  0.000  0.001  0.001
   30  0.000  0.000  0.000  0.000
   31  0.000  0.000  0.001  0.001
   32  0.000  0.000  0.001  0.001
   33  0.000  0.000  0.000  0.000
   34  0.000  0.000  0.001  0.001
   35  0.000  0.000  0.000  0.000
   36  0.000  0.002  0.014  0.016
   37  0.000  0.173  0.000  0.173
   38  0.000  0.483  0.000  0.483
tot    0.002  0.660  0.018  0.679
 
band     7 # energy   -6.75483448 # occ.  2.00000000
 
ion      s      p      d    tot
    1  0.000  0.000  0.000  0.000
    2  0.000  0.000  0.000  0.000
    3  0.000  0.000  0.000  0.000
    4  0.000  0.000  0.000  0.000
    5  0.000  0.000  0.000  0.000
    6  0.000  0.000  0.000  0.000
    7  0.000  0.000  0.000  0.000
    8  0.000  0.000  0.000  0.000
    9  0.000  0.000  0.000  0.000
   10  0.000  0.000  0.000  0.000
   11  0.000  0.000  0.000  0.000
   12  0.000  0.000  0.000  0.000
   13  0.000  0.000  0.000  0.000
   14  0.000  0.000  0.000  0.000
   15  0.000  0.000  0.000  0.000
   16  0.000  0.000  0.000  0.000
   17  0.000  0.000  0.000  0.000
   18  0.000  0.000  0.000  0.000
   19  0.000  0.000  0.000  0.000
   20  0.000  0.000  0.000  0.000
   21  0.000  0.000  0.000  0.000
   22  0.000  0.000  0.000  0.000
   23  0.000  0.000  0.000  0.000
   24  0.000  0.000  0.000  0.000
   25  0.000  0.000  0.000  0.000
   26  0.000  0.000  0.000  0.000
   27  0.000  0.000  0.000  0.000
   28  0.000  0.000  0.000  0.000
   29  0.000  0.000  0.000  0.001
   30  0.000  0.000  0.001  0.001
   31  0.000  0.000  0.000  0.001
   32  0.000  0.000  0.000  0.000
   33  0.000  0.000  0.001  0.001
   34  0.000  0.000  0.000  0.000
   35  0.000  0.000  0.000  0.000
   36  0.000  0.002  0.014  0.016
   37  0.000  0.173  0.000  0.173
   38  0.000  0.483  0.000  0.483
tot    0.002  0.660  0.018  0.679
 
band     8 # energy   -6.58136386 # occ.  2.00000000
 
ion      s      p      d    tot
    1  0.014  0.000  0.004  0.018
    2  0.012  0.000  0.005  0.017
    3  0.012  0.000  0.005  0.017
    4  0.012  0.000  0.005  0.017
    5  0.004  0.000  0.005  0.010
    6  0.012  0.000  0.005  0.017
    7  0.012  0.000  0.005  0.017
    8  0.012  0.000  0.005  0.017
    9  0.023  0.000  0.003  0.026
   10  0.002  0.003  0.002  0.008
   11  0.012  0.005  0.001  0.018
   12  0.002  0.003  0.002  0.008
   13  0.012  0.005  0.001  0.018
   14  0.012  0.005  0.001  0.018
   15  0.000  0.002  0.004  0.006
   16  0.002  0.003  0.002  0.008
   17  0.000  0.002  0.004  0.006
   18  0.000  0.002  0.004  0.006
   19  0.001  0.002  0.006  0.009
   20  0.024  0.005  0.004  0.033
   21  0.024  0.005  0.004  0.033
   22  0.000  0.004  0.004  0.008
   23  0.024  0.005  0.004  0.033
   24  0.000  0.004  0.004  0.008
   25  0.001  0.002  0.006  0.009
   26  0.001  0.002  0.006  0.009
   27  0.000  0.004  0.004  0.008
   28  0.021  0.000  0.005  0.026
   29  0.015  0.000  0.008  0.024
   30  0.016  0.000  0.008  0.024
   31  0.015  0.000  0.008  0.024
   32  0.015  0.000  0.008  0.024
   33  0.016  0.000  0.008  0.024
   34  0.015  0.000  0.008  0.024
   35  0.027  0.000  0.005  0.033
   36  0.000  0.001  0.040  0.041
   37  0.002  0.006  0.000  0.007
   38  0.000  0.004  0.000  0.005
tot    0.373  0.079  0.200  0.652
 
band     9 # energy   -6.48019594 # occ.  2.00000000
 
ion      s      p      d    tot
    1  0.000  0.003  0.005  0.008
    2  0.008  0.002  0.002  0.012
    3  0.005  0.002  0.002  0.009
    4  0.008  0.002  0.002  0.012
    5  0.000  0.002  0.003  0.004
    6  0.004  0.001  0.002  0.008
    7  0.001  0.001  0.002  0.003
    8  0.000  0.001  0.002  0.003
    9  0.000  0.000  0.003  0.003
   10  0.053  0.004  0.005  0.062
   11  0.001  0.012  0.002  0.015
   12  0.032  0.004  0.008  0.044
   13  0.009  0.006  0.004  0.019
   14  0.015  0.001  0.006  0.022
   15  0.001  0.003  0.010  0.014
   16  0.003  0.003  0.013  0.019
   17  0.007  0.003  0.006  0.016
   18  0.011  0.003  0.003  0.017
   19  0.002  0.012  0.004  0.018
   20  0.055  0.004  0.006  0.065
   21  0.033  0.003  0.011  0.047
   22  0.001  0.005  0.005  0.010
   23  0.003  0.001  0.019  0.022
   24  0.001  0.002  0.004  0.008
   25  0.035  0.002  0.007  0.043
   26  0.021  0.006  0.006  0.033
   27  0.000  0.008  0.006  0.014
   28  0.000  0.003  0.004  0.008
   29  0.012  0.003  0.003  0.018
   30  0.010  0.002  0.003  0.016
   31  0.008  0.002  0.003  0.013
   32  0.003  0.001  0.003  0.008
   33  0.003  0.001  0.003  0.008
   34  0.000  0.001  0.003  0.004
   35  0.000  0.000  0.003  0.003
   36  0.000  0.006  0.013  0.019
   37  0.000  0.000  0.000  0.000
   38  0.000  0.001  0.000  0.001
tot    0.343  0.116  0.189  0.648
 
band    10 # energy   -6.48012394 # occ.  2.00000000
 
ion      s      p      d    tot
    1  0.000  0.003  0.005  0.008
    2  0.000  0.001  0.002  0.003
    3  0.003  0.001  0.002  0.007
    4  0.001  0.001  0.002  0.004
    5  0.000  0.002  0.003  0.004
    6  0.005  0.001  0.002  0.008
    7  0.008  0.002  0.002  0.012
    8  0.009  0.002  0.002  0.013
    9  0.000  0.000  0.003  0.003
   10  0.005  0.003  0.012  0.021
   11  0.016  0.001  0.006  0.023
   12  0.026  0.003  0.009  0.039
   13  0.008  0.007  0.004  0.019
   14  0.002  0.012  0.003  0.016
   15  0.011  0.003  0.003  0.018
   16  0.055  0.004  0.005  0.064
   17  0.005  0.003  0.007  0.015
   18  0.001  0.003  0.010  0.014
   19  0.037  0.001  0.007  0.045
   20  0.006  0.001  0.018  0.025
   21  0.027  0.002  0.013  0.042
   22  0.001  0.005  0.005  0.011
   23  0.057  0.004  0.005  0.067
   24  0.000  0.007  0.006  0.014
   25  0.004  0.011  0.004  0.019
   26  0.018  0.007  0.005  0.030
   27  0.001  0.002  0.004  0.008
   28  0.000  0.003  0.004  0.008
   29  0.000  0.001  0.003  0.004
   30  0.002  0.001  0.003  0.007
   31  0.004  0.001  0.003  0.009
   32  0.009  0.002  0.003  0.015
   33  0.009  0.003  0.003  0.015
   34  0.012  0.003  0.003  0.018
   35  0.000  0.000  0.003  0.003
   36  0.000  0.006  0.013  0.019
   37  0.000  0.000  0.000  0.000
   38  0.000  0.001  0.000  0.001
tot    0.343  0.116  0.189  0.648
 
band    11 # energy   -6.43370409 # occ.  2.00000000
 
ion      s      p      d    tot
    1  0.000  0.000  0.002  0.002
    2  0.009  0.002  0.002  0.014
    3  0.004  0.001  0.002  0.007
    4  0.009  0.002  0.002  0.014
    5  0.000  0.001  0.005  0.006
    6  0.002  0.001  0.002  0.005
    7  0.003  0.001  0.002  0.006
    8  0.001  0.001  0.002  0.004
    9  0.000  0.003  0.004  0.007
   10  0.000  0.009  0.004  0.014
   11  0.034  0.004  0.005  0.043
   12  0.000  0.004  0.005  0.008
   13  0.031  0.003  0.006  0.040
   14  0.000  0.000  0.016  0.016
   15  0.035  0.003  0.006  0.044
   16  0.000  0.003  0.005  0.008
   17  0.032  0.004  0.006  0.041
   18  0.000  0.010  0.006  0.016
   19  0.020  0.004  0.005  0.029
   20  0.000  0.014  0.001  0.015
   21  0.006  0.004  0.005  0.016
   22  0.044  0.004  0.006  0.054
   23  0.007  0.003  0.006  0.016
   24  0.000  0.006  0.011  0.017
   25  0.000  0.001  0.015  0.017
   26  0.018  0.003  0.006  0.027
   27  0.049  0.004  0.006  0.059
   28  0.000  0.001  0.005  0.006
   29  0.012  0.003  0.003  0.018
   30  0.005  0.002  0.004  0.011
   31  0.012  0.003  0.003  0.018
   32  0.002  0.001  0.003  0.006
   33  0.004  0.002  0.004  0.010
   34  0.001  0.001  0.003  0.006
   35  0.000  0.004  0.006  0.010
   36  0.000  0.003  0.008  0.011
   37  0.000  0.000  0.000  0.000
   38  0.000  0.000  0.000  0.000
tot    0.342  0.117  0.181  0.640
 
band    12 # energy   -6.43365188 # occ.  2.00000000
 
ion      s      p      d    tot
    1  0.000  0.000  0.002  0.002
    2  0.000  0.001  0.002  0.003
    3  0.006  0.002  0.002  0.010
    4  0.000  0.001  0.002  0.003
    5  0.000  0.001  0.005  0.006
    6  0.007  0.002  0.002  0.011
    7  0.007  0.002  0.002  0.011
    8  0.008  0.002  0.002  0.012
    9  0.000  0.003  0.004  0.007
   10  0.000  0.001  0.005  0.006
   11  0.009  0.001  0.013  0.023
   12  0.000  0.007  0.004  0.012
   13  0.013  0.001  0.012  0.026
   14  0.043  0.005  0.002  0.050
   15  0.009  0.008  0.006  0.023
   16  0.000  0.008  0.004  0.012
   17  0.013  0.007  0.006  0.026
   18  0.044  0.001  0.006  0.052
   19  0.006  0.002  0.012  0.020
   20  0.009  0.000  0.007  0.016
   21  0.003  0.010  0.003  0.015
   22  0.018  0.005  0.009  0.032
   23  0.002  0.011  0.002  0.015
   24  0.062  0.003  0.004  0.069
   25  0.026  0.004  0.002  0.032
   26  0.008  0.002  0.011  0.021
   27  0.013  0.005  0.010  0.028
   28  0.000  0.001  0.005  0.006
   29  0.000  0.001  0.004  0.005
   30  0.007  0.002  0.003  0.012
   31  0.000  0.001  0.004  0.005
   32  0.010  0.003  0.003  0.016
   33  0.008  0.002  0.003  0.013
   34  0.011  0.003  0.003  0.017
   35  0.000  0.004  0.006  0.010
   36  0.000  0.003  0.008  0.011
   37  0.000  0.000  0.000  0.000
   38  0.000  0.000  0.000  0.000
tot    0.342  0.117  0.181  0.640
 
band    13 # energy   -6.42745088 # occ.  2.00000000
 
ion      s      p      d    tot
    1  0.021  0.003  0.001  0.025
    2  0.000  0.002  0.004  0.006
    3  0.000  0.002  0.004  0.006
    4  0.000  0.002  0.004  0.006
    5  0.002  0.000  0.001  0.003
    6  0.000  0.002  0.004  0.006
    7  0.000  0.002  0.004  0.006
    8  0.000  0.002  0.004  0.006
    9  0.008  0.001  0.000  0.010
   10  0.030  0.006  0.006  0.041
   11  0.006  0.000  0.011  0.018
   12  0.030  0.006  0.005  0.041
   13  0.006  0.000  0.011  0.018
   14  0.006  0.000  0.011  0.018
   15  0.011  0.008  0.004  0.022
   16  0.030  0.006  0.005  0.041
   17  0.011  0.008  0.004  0.022
   18  0.010  0.008  0.004  0.022
   19  0.022  0.009  0.002  0.034
   20  0.000  0.003  0.012  0.014
   21  0.000  0.003  0.012  0.014
   22  0.024  0.002  0.009  0.035
   23  0.000  0.003  0.012  0.014
   24  0.024  0.002  0.009  0.035
   25  0.023  0.009  0.002  0.034
   26  0.023  0.009  0.002  0.034
   27  0.024  0.002  0.009  0.034
   28  0.019  0.003  0.000  0.022
   29  0.000  0.002  0.005  0.006
   30  0.000  0.002  0.005  0.006
   31  0.000  0.002  0.005  0.006
   32  0.000  0.002  0.005  0.006
   33  0.000  0.002  0.005  0.006
   34  0.000  0.002  0.005  0.006
   35  0.013  0.002  0.001  0.016
   36  0.000  0.000  0.000  0.001
   37  0.000  0.000  0.000  0.000
   38  0.000  0.000  0.000  0.000
tot    0.342  0.114  0.184  0.640
 
band    14 # energy   -6.25015216 # occ.  2.00000000
 
ion      s      p      d    tot
    1  0.000  0.000  0.001  0.001
    2  0.001  0.002  0.006  0.009
    3  0.001  0.002  0.006  0.009
    4  0.001  0.002  0.006  0.009
    5  0.035  0.003  0.000  0.038
    6  0.001  0.002  0.006  0.009
    7  0.001  0.002  0.006  0.009
    8  0.001  0.002  0.006  0.009
    9  0.006  0.002  0.003  0.012
   10  0.002  0.003  0.009  0.014
   11  0.019  0.008  0.003  0.030
   12  0.002  0.003  0.009  0.014
   13  0.019  0.008  0.003  0.030
   14  0.019  0.008  0.003  0.030
   15  0.026  0.002  0.011  0.038
   16  0.002  0.003  0.009  0.014
   17  0.026  0.002  0.011  0.038
   18  0.026  0.002  0.011  0.038
   19  0.003  0.002  0.006  0.010
   20  0.010  0.002  0.011  0.022
   21  0.010  0.002  0.011  0.022
   22  0.005  0.005  0.004  0.014
   23  0.010  0.002  0.011  0.022
   24  0.005  0.005  0.004  0.014
   25  0.003  0.002  0.006  0.010
   26  0.003  0.002  0.006  0.010
   27  0.005  0.005  0.004  0.014
   28  0.003  0.000  0.002  0.005
   29  0.003  0.000  0.003  0.006
   30  0.003  0.000  0.003  0.006
   31  0.003  0.000  0.003  0.006
   32  0.003  0.000  0.003  0.006
   33  0.003  0.000  0.003  0.006
   34  0.003  0.000  0.003  0.006
   35  0.000  0.000  0.002  0.002
   36  0.000  0.019  0.037  0.056
   37  0.013  0.049  0.000  0.062
   38  0.001  0.044  0.000  0.045
tot    0.275  0.196  0.226  0.697
 
band    15 # energy   -5.74511868 # occ.  2.00000000
 
ion      s      p      d    tot
    1  0.000  0.003  0.009  0.012
    2  0.019  0.004  0.005  0.027
    3  0.000  0.001  0.004  0.006
    4  0.014  0.003  0.005  0.021
    5  0.000  0.000  0.009  0.009
    6  0.007  0.002  0.005  0.014
    7  0.003  0.002  0.004  0.009
    8  0.015  0.003  0.005  0.023
    9  0.000  0.005  0.008  0.013
   10  0.000  0.005  0.014  0.019
   11  0.003  0.002  0.010  0.015
   12  0.008  0.001  0.007  0.016
   13  0.005  0.002  0.007  0.014
   14  0.000  0.002  0.014  0.017
   15  0.015  0.003  0.011  0.029
   16  0.005  0.003  0.010  0.017
   17  0.025  0.004  0.006  0.035
   18  0.001  0.001  0.020  0.022
   19  0.005  0.003  0.010  0.018
   20  0.000  0.002  0.020  0.022
   21  0.000  0.001  0.012  0.013
   22  0.008  0.003  0.005  0.017
   23  0.000  0.001  0.015  0.017
   24  0.000  0.001  0.027  0.029
   25  0.000  0.000  0.011  0.012
   26  0.009  0.006  0.009  0.023
   27  0.005  0.003  0.014  0.022
   28  0.000  0.004  0.009  0.012
   29  0.027  0.003  0.010  0.040
   30  0.000  0.002  0.010  0.012
   31  0.018  0.003  0.010  0.031
   32  0.012  0.002  0.010  0.024
   33  0.003  0.002  0.010  0.015
   34  0.023  0.002  0.011  0.036
   35  0.000  0.006  0.009  0.015
   36  0.000  0.000  0.032  0.033
   37  0.000  0.000  0.000  0.000
   38  0.000  0.000  0.000  0.000
tot    0.231  0.091  0.388  0.710
 
band    16 # energy   -5.74507839 # occ.  2.00000000
 
ion      s      p      d    tot
    1  0.000  0.003  0.009  0.012
    2  0.000  0.001  0.005  0.006
    3  0.019  0.004  0.005  0.027
    4  0.005  0.002  0.005  0.012
    5  0.000  0.000  0.009  0.009
    6  0.012  0.003  0.005  0.019
    7  0.016  0.003  0.005  0.024
    8  0.004  0.002  0.004  0.010
    9  0.000  0.005  0.008  0.013
   10  0.008  0.001  0.007  0.016
   11  0.003  0.002  0.011  0.016
   12  0.001  0.004  0.014  0.019
   13  0.001  0.002  0.014  0.017
   14  0.006  0.002  0.007  0.014
   15  0.013  0.002  0.013  0.028
   16  0.004  0.003  0.011  0.018
   17  0.003  0.001  0.019  0.022
   18  0.026  0.004  0.005  0.035
   19  0.004  0.003  0.010  0.017
   20  0.000  0.001  0.012  0.012
   21  0.000  0.002  0.020  0.022
   22  0.001  0.002  0.026  0.028
   23  0.000  0.002  0.016  0.018
   24  0.009  0.004  0.004  0.016
   25  0.009  0.006  0.009  0.024
   26  0.001  0.001  0.011  0.012
   27  0.004  0.002  0.016  0.023
   28  0.000  0.004  0.009  0.012
   29  0.001  0.002  0.010  0.013
   30  0.027  0.003  0.010  0.041
   31  0.009  0.002  0.010  0.022
   32  0.016  0.003  0.010  0.029
   33  0.025  0.003  0.011  0.038
   34  0.005  0.002  0.010  0.017
   35  0.000  0.006  0.009  0.015
   36  0.000  0.000  0.032  0.033
   37  0.000  0.000  0.000  0.000
   38  0.000  0.000  0.000  0.000
tot    0.231  0.091  0.388  0.710
 
band    17 # energy   -5.73354300 # occ.  2.00000000
 
ion      s      p      d    tot
    1  0.004  0.001  0.011  0.015
    2  0.006  0.001  0.010  0.017
    3  0.006  0.001  0.010  0.017
    4  0.006  0.001  0.010  0.017
    5  0.003  0.001  0.010  0.014
    6  0.006  0.001  0.010  0.017
    7  0.006  0.001  0.010  0.017
    8  0.006  0.001  0.010  0.017
    9  0.014  0.000  0.009  0.022
   10  0.010  0.000  0.025  0.035
   11  0.008  0.000  0.023  0.031
   12  0.010  0.000  0.025  0.035
   13  0.008  0.000  0.022  0.031
   14  0.008  0.000  0.023  0.031
   15  0.004  0.000  0.022  0.027
   16  0.010  0.000  0.025  0.035
   17  0.004  0.000  0.022  0.027
   18  0.004  0.000  0.022  0.027
   19  0.006  0.000  0.019  0.025
   20  0.007  0.000  0.029  0.037
   21  0.007  0.000  0.029  0.037
   22  0.003  0.000  0.017  0.020
   23  0.007  0.000  0.029  0.037
   24  0.003  0.000  0.017  0.020
   25  0.006  0.000  0.019  0.025
   26  0.006  0.000  0.019  0.025
   27  0.003  0.000  0.017  0.020
   28  0.001  0.001  0.006  0.007
   29  0.003  0.000  0.008  0.011
   30  0.003  0.000  0.008  0.011
   31  0.003  0.000  0.008  0.011
   32  0.003  0.000  0.008  0.011
   33  0.003  0.000  0.008  0.011
   34  0.003  0.000  0.008  0.011
   35  0.006  0.000  0.005  0.011
   36  0.003  0.002  0.014  0.019
   37  0.000  0.000  0.000  0.000
   38  0.000  0.000  0.000  0.000
tot    0.204  0.013  0.567  0.784
 
band    18 # energy   -5.68573687 # occ.  2.00000000
 
ion      s      p      d    tot
    1  0.000  0.003  0.009  0.012
    2  0.020  0.004  0.005  0.029
    3  0.001  0.002  0.005  0.008
    4  0.020  0.004  0.005  0.029
    5  0.000  0.006  0.009  0.015
    6  0.010  0.003  0.005  0.019
    7  0.002  0.002  0.005  0.008
    8  0.011  0.003  0.005  0.020
    9  0.000  0.000  0.012  0.012
   10  0.019  0.005  0.008  0.031
   11  0.005  0.003  0.020  0.028
   12  0.004  0.001  0.017  0.023
   13  0.004  0.003  0.021  0.028
   14  0.019  0.003  0.005  0.027
   15  0.000  0.003  0.014  0.017
   16  0.005  0.001  0.017  0.023
   17  0.000  0.003  0.014  0.017
   18  0.000  0.000  0.008  0.009
   19  0.001  0.002  0.019  0.022
   20  0.019  0.006  0.005  0.030
   21  0.004  0.002  0.028  0.034
   22  0.001  0.001  0.011  0.014
   23  0.005  0.002  0.027  0.034
   24  0.006  0.003  0.010  0.019
   25  0.003  0.000  0.006  0.010
   26  0.001  0.002  0.020  0.023
   27  0.002  0.002  0.011  0.015
   28  0.000  0.002  0.012  0.014
   29  0.016  0.003  0.007  0.027
   30  0.000  0.001  0.006  0.007
   31  0.016  0.003  0.007  0.026
   32  0.011  0.003  0.007  0.021
   33  0.001  0.001  0.006  0.008
   34  0.011  0.003  0.007  0.022
   35  0.000  0.001  0.011  0.011
   36  0.000  0.012  0.013  0.025
   37  0.000  0.000  0.000  0.000
   38  0.000  0.000  0.000  0.000
tot    0.219  0.098  0.400  0.717
 
band    19 # energy   -5.68566496 # occ.  2.00000000
 
ion      s      p      d    tot
    1  0.000  0.003  0.009  0.012
    2  0.001  0.002  0.005  0.008
    3  0.020  0.004  0.005  0.030
    4  0.002  0.002  0.005  0.009
    5  0.000  0.006  0.009  0.015
    6  0.011  0.003  0.005  0.019
    7  0.020  0.004  0.005  0.029
    8  0.010  0.003  0.005  0.018
    9  0.000  0.000  0.012  0.012
   10  0.000  0.000  0.020  0.020
   11  0.014  0.003  0.011  0.027
   12  0.014  0.004  0.011  0.029
   13  0.014  0.003  0.010  0.027
   14  0.000  0.002  0.026  0.028
   15  0.000  0.001  0.010  0.012
   16  0.014  0.003  0.011  0.028
   17  0.000  0.001  0.010  0.011
   18  0.000  0.004  0.016  0.020
   19  0.002  0.001  0.011  0.014
   20  0.000  0.001  0.034  0.035
   21  0.015  0.005  0.012  0.031
   22  0.005  0.003  0.010  0.018
   23  0.014  0.004  0.013  0.032
   24  0.000  0.001  0.012  0.013
   25  0.000  0.003  0.024  0.027
   26  0.002  0.001  0.010  0.014
   27  0.005  0.002  0.011  0.018
   28  0.000  0.002  0.012  0.014
   29  0.002  0.002  0.006  0.010
   30  0.018  0.004  0.008  0.029
   31  0.003  0.002  0.006  0.011
   32  0.008  0.002  0.006  0.016
   33  0.018  0.004  0.008  0.029
   34  0.007  0.002  0.006  0.015
   35  0.000  0.001  0.011  0.011
   36  0.000  0.012  0.013  0.025
   37  0.000  0.000  0.000  0.000
   38  0.000  0.000  0.000  0.000
tot    0.219  0.098  0.400  0.717
 
band    20 # energy   -5.67768920 # occ.  2.00000000
 
ion      s      p      d    tot
    1  0.034  0.003  0.000  0.037
    2  0.000  0.003  0.010  0.013
    3  0.000  0.003  0.010  0.013
    4  0.000  0.003  0.010  0.013
    5  0.000  0.000  0.001  0.001
    6  0.000  0.003  0.010  0.013
    7  0.000  0.003  0.010  0.013
    8  0.000  0.003  0.010  0.013
    9  0.026  0.004  0.001  0.031
   10  0.008  0.003  0.011  0.022
   11  0.002  0.000  0.015  0.017
   12  0.008  0.003  0.011  0.022
   13  0.002  0.000  0.015  0.017
   14  0.002  0.000  0.015  0.017
   15  0.008  0.003  0.015  0.027
   16  0.008  0.003  0.011  0.022
   17  0.008  0.003  0.015  0.027
   18  0.008  0.003  0.015  0.027
   19  0.004  0.003  0.019  0.026
   20  0.000  0.000  0.015  0.015
   21  0.000  0.000  0.015  0.016
   22  0.011  0.003  0.009  0.024
   23  0.000  0.000  0.015  0.016
   24  0.011  0.003  0.009  0.024
   25  0.004  0.003  0.019  0.026
   26  0.004  0.003  0.019  0.026
   27  0.011  0.003  0.009  0.024
   28  0.039  0.003  0.000  0.042
   29  0.000  0.003  0.013  0.016
   30  0.000  0.003  0.013  0.016
   31  0.000  0.003  0.013  0.016
   32  0.000  0.003  0.013  0.016
   33  0.000  0.003  0.013  0.016
   34  0.000  0.003  0.013  0.016
   35  0.027  0.003  0.001  0.031
   36  0.000  0.000  0.000  0.000
   37  0.000  0.000  0.000  0.000
   38  0.000  0.000  0.000  0.000
tot    0.224  0.089  0.393  0.707
 
band    21 # energy   -5.50212625 # occ.  2.00000000
 
ion      s      p      d    tot
    1  0.014  0.001  0.000  0.015
    2  0.000  0.003  0.010  0.013
    3  0.000  0.003  0.010  0.013
    4  0.000  0.003  0.010  0.013
    5  0.038  0.004  0.000  0.042
    6  0.000  0.003  0.010  0.013
    7  0.000  0.003  0.010  0.013
    8  0.000  0.003  0.010  0.013
    9  0.006  0.001  0.000  0.007
   10  0.001  0.001  0.025  0.027
   11  0.005  0.004  0.019  0.027
   12  0.001  0.001  0.025  0.027
   13  0.005  0.004  0.019  0.027
   14  0.005  0.004  0.019  0.027
   15  0.002  0.001  0.007  0.010
   16  0.000  0.001  0.025  0.027