PROCAR new format
# of k-points:   10         # of bands:  252         # of ions:   37

 k-point     1 :    0.00000000 0.00000000 0.00000000     weight = 0.01562500

band     1 # energy  -13.02269683 # occ.  2.00000000
 
ion      s      p      d    tot
    1  0.000  0.000  0.000  0.000
    2  0.000  0.000  0.000  0.000
    3  0.000  0.000  0.000  0.000
    4  0.000  0.000  0.000  0.000
    5  0.000  0.000  0.000  0.000
    6  0.000  0.000  0.000  0.000
    7  0.000  0.000  0.000  0.000
    8  0.000  0.000  0.000  0.000
    9  0.000  0.000  0.000  0.000
   10  0.000  0.000  0.000  0.000
   11  0.000  0.000  0.000  0.000
   12  0.000  0.000  0.000  0.000
   13  0.000  0.000  0.000  0.000
   14  0.000  0.000  0.000  0.000
   15  0.000  0.000  0.000  0.000
   16  0.000  0.000  0.000  0.000
   17  0.000  0.000  0.000  0.000
   18  0.000  0.000  0.000  0.000
   19  0.000  0.000  0.000  0.000
   20  0.000  0.000  0.000  0.000
   21  0.000  0.000  0.000  0.000
   22  0.000  0.000  0.000  0.000
   23  0.000  0.000  0.000  0.000
   24  0.000  0.000  0.000  0.000
   25  0.000  0.000  0.000  0.000
   26  0.000  0.000  0.000  0.000
   27  0.000  0.000  0.000  0.000
   28  0.000  0.000  0.000  0.000
   29  0.000  0.000  0.000  0.001
   30  0.000  0.000  0.000  0.001
   31  0.000  0.000  0.000  0.001
   32  0.000  0.000  0.000  0.001
   33  0.000  0.000  0.000  0.001
   34  0.000  0.000  0.000  0.001
   35  0.000  0.000  0.000  0.000
   36  0.068  0.068  0.087  0.223
   37  0.619  0.020  0.000  0.639
tot    0.689  0.089  0.089  0.866
 
band     2 # energy   -8.17674264 # occ.  2.00000000
 
ion      s      p      d    tot
    1  0.007  0.001  0.000  0.007
    2  0.007  0.001  0.000  0.007
    3  0.007  0.001  0.000  0.007
    4  0.007  0.001  0.000  0.007
    5  0.007  0.001  0.000  0.007
    6  0.007  0.001  0.000  0.007
    7  0.007  0.001  0.000  0.007
    8  0.007  0.001  0.000  0.007
    9  0.007  0.001  0.000  0.007
   10  0.026  0.000  0.000  0.027
   11  0.027  0.000  0.000  0.027
   12  0.026  0.000  0.000  0.027
   13  0.027  0.000  0.000  0.027
   14  0.027  0.000  0.000  0.027
   15  0.027  0.000  0.000  0.027
   16  0.026  0.000  0.000  0.027
   17  0.027  0.000  0.000  0.027
   18  0.027  0.000  0.000  0.027
   19  0.024  0.000  0.000  0.024
   20  0.026  0.000  0.000  0.026
   21  0.026  0.000  0.000  0.026
   22  0.025  0.000  0.000  0.025
   23  0.026  0.000  0.000  0.026
   24  0.025  0.000  0.000  0.025
   25  0.024  0.000  0.000  0.024
   26  0.024  0.000  0.000  0.024
   27  0.025  0.000  0.000  0.025
   28  0.005  0.000  0.000  0.005
   29  0.005  0.001  0.000  0.005
   30  0.005  0.001  0.000  0.005
   31  0.005  0.001  0.000  0.005
   32  0.005  0.001  0.000  0.005
   33  0.005  0.001  0.000  0.005
   34  0.005  0.001  0.000  0.005
   35  0.005  0.000  0.000  0.005
   36  0.003  0.001  0.000  0.004
   37  0.001  0.000  0.000  0.001
tot    0.565  0.013  0.004  0.581
 
band     3 # energy   -6.98333287 # occ.  2.00000000
 
ion      s      p      d    tot
    1  0.017  0.000  0.001  0.019
    2  0.017  0.000  0.001  0.019
    3  0.017  0.000  0.001  0.019
    4  0.017  0.000  0.001  0.019
    5  0.017  0.000  0.001  0.019
    6  0.017  0.000  0.001  0.019
    7  0.017  0.000  0.001  0.019
    8  0.017  0.000  0.001  0.019
    9  0.017  0.000  0.001  0.019
   10  0.010  0.002  0.003  0.015
   11  0.010  0.002  0.003  0.014
   12  0.010  0.002  0.003  0.015
   13  0.010  0.002  0.003  0.014
   14  0.010  0.002  0.003  0.014
   15  0.010  0.002  0.003  0.014
   16  0.010  0.002  0.003  0.015
   17  0.010  0.002  0.003  0.014
   18  0.010  0.002  0.003  0.014
   19  0.015  0.001  0.004  0.020
   20  0.016  0.001  0.004  0.021
   21  0.016  0.001  0.004  0.021
   22  0.015  0.001  0.004  0.020
   23  0.016  0.001  0.004  0.021
   24  0.015  0.001  0.004  0.020
   25  0.015  0.001  0.004  0.020
   26  0.015  0.001  0.004  0.020
   27  0.015  0.001  0.004  0.020
   28  0.013  0.001  0.000  0.014
   29  0.012  0.001  0.000  0.013
   30  0.012  0.001  0.000  0.013
   31  0.012  0.001  0.000  0.013
   32  0.012  0.001  0.000  0.013
   33  0.012  0.001  0.000  0.013
   34  0.012  0.001  0.000  0.013
   35  0.013  0.001  0.000  0.014
   36  0.006  0.002  0.001  0.008
   37  0.002  0.000  0.000  0.002
tot    0.491  0.034  0.074  0.599
 
band     4 # energy   -6.04743004 # occ.  2.00000000
 
ion      s      p      d    tot
    1  0.000  0.001  0.009  0.009
    2  0.004  0.000  0.007  0.012
    3  0.004  0.000  0.007  0.012
    4  0.004  0.000  0.007  0.012
    5  0.000  0.000  0.003  0.004
    6  0.004  0.000  0.007  0.012
    7  0.004  0.000  0.007  0.012
    8  0.004  0.000  0.007  0.012
    9  0.027  0.001  0.001  0.029
   10  0.011  0.000  0.022  0.033
   11  0.014  0.003  0.009  0.027
   12  0.011  0.000  0.022  0.033
   13  0.014  0.003  0.009  0.027
   14  0.014  0.003  0.009  0.026
   15  0.014  0.001  0.015  0.030
   16  0.011  0.000  0.022  0.033
   17  0.014  0.001  0.015  0.030
   18  0.014  0.001  0.015  0.030
   19  0.000  0.001  0.021  0.022
   20  0.023  0.001  0.016  0.041
   21  0.023  0.001  0.016  0.040
   22  0.014  0.002  0.004  0.020
   23  0.023  0.001  0.016  0.040
   24  0.014  0.002  0.004  0.020
   25  0.000  0.001  0.021  0.022
   26  0.000  0.001  0.021  0.022
   27  0.014  0.002  0.004  0.020
   28  0.004  0.000  0.000  0.005
   29  0.001  0.000  0.005  0.007
   30  0.001  0.000  0.005  0.007
   31  0.001  0.000  0.005  0.007
   32  0.001  0.000  0.005  0.007
   33  0.001  0.000  0.005  0.007
   34  0.001  0.000  0.005  0.007
   35  0.011  0.001  0.000  0.012
   36  0.005  0.002  0.002  0.010
   37  0.000  0.001  0.000  0.001
tot    0.309  0.039  0.348  0.696
 
band     5 # energy   -6.03752647 # occ.  2.00000000
 
ion      s      p      d    tot
    1  0.028  0.000  0.013  0.041
    2  0.017  0.000  0.018  0.035
    3  0.017  0.000  0.018  0.035
    4  0.017  0.000  0.018  0.035
    5  0.018  0.000  0.019  0.037
    6  0.017  0.000  0.018  0.035
    7  0.017  0.000  0.018  0.035
    8  0.017  0.000  0.018  0.035
    9  0.008  0.000  0.020  0.028
   10  0.001  0.000  0.030  0.032
   11  0.004  0.001  0.025  0.030
   12  0.001  0.000  0.030  0.032
   13  0.004  0.001  0.025  0.030
   14  0.004  0.001  0.025  0.030
   15  0.023  0.001  0.017  0.041
   16  0.001  0.000  0.030  0.032
   17  0.023  0.001  0.017  0.041
   18  0.023  0.001  0.017  0.041
   19  0.001  0.000  0.007  0.009
   20  0.006  0.000  0.007  0.013
   21  0.006  0.000  0.007  0.013
   22  0.002  0.001  0.006  0.009
   23  0.006  0.000  0.007  0.013
   24  0.002  0.001  0.006  0.009
   25  0.001  0.000  0.007  0.009
   26  0.001  0.000  0.007  0.009
   27  0.002  0.001  0.006  0.009
   28  0.000  0.000  0.000  0.000
   29  0.000  0.000  0.001  0.001
   30  0.000  0.000  0.001  0.001
   31  0.000  0.000  0.001  0.001
   32  0.000  0.000  0.001  0.001
   33  0.000  0.000  0.001  0.001
   34  0.000  0.000  0.001  0.001
   35  0.000  0.000  0.000  0.001
   36  0.002  0.001  0.000  0.003
   37  0.000  0.000  0.000  0.001
tot    0.271  0.015  0.441  0.727
 
band     6 # energy   -6.02485842 # occ.  2.00000000
 
ion      s      p      d    tot
    1  0.000  0.000  0.005  0.005
    2  0.006  0.001  0.004  0.011
    3  0.004  0.001  0.003  0.008
    4  0.006  0.001  0.004  0.011
    5  0.000  0.001  0.009  0.010
    6  0.000  0.000  0.003  0.004
    7  0.004  0.001  0.003  0.008
    8  0.000  0.000  0.003  0.004
    9  0.000  0.001  0.002  0.002
   10  0.000  0.001  0.027  0.028
   11  0.044  0.002  0.014  0.060
   12  0.011  0.001  0.011  0.024
   13  0.045  0.002  0.014  0.060
   14  0.000  0.002  0.036  0.038
   15  0.011  0.001  0.012  0.024
   16  0.011  0.001  0.011  0.024
   17  0.011  0.001  0.012  0.024
   18  0.000  0.004  0.003  0.007
   19  0.001  0.001  0.011  0.012
   20  0.000  0.004  0.022  0.026
   21  0.037  0.001  0.014  0.053
   22  0.028  0.002  0.012  0.041
   23  0.037  0.001  0.014  0.053
   24  0.000  0.000  0.038  0.038
   25  0.000  0.003  0.005  0.008
   26  0.001  0.001  0.011  0.012
   27  0.027  0.002  0.012  0.041
   28  0.000  0.000  0.001  0.001
   29  0.001  0.000  0.002  0.003
   30  0.007  0.001  0.003  0.011
   31  0.001  0.000  0.002  0.003
   32  0.003  0.001  0.004  0.008
   33  0.007  0.001  0.003  0.011
   34  0.003  0.001  0.004  0.008
   35  0.000  0.000  0.007  0.007
   36  0.000  0.002  0.002  0.004
   37  0.000  0.000  0.000  0.000
tot    0.308  0.043  0.343  0.693
 
band     7 # energy   -6.02482657 # occ.  2.00000000
 
ion      s      p      d    tot
    1  0.000  0.000  0.005  0.005
    2  0.001  0.000  0.003  0.004
    3  0.003  0.001  0.004  0.007
    4  0.001  0.000  0.003  0.004
    5  0.000  0.001  0.009  0.010
    6  0.007  0.001  0.003  0.012
    7  0.003  0.001  0.004  0.007
    8  0.007  0.001  0.003  0.012
    9  0.000  0.001  0.002  0.002
   10  0.015  0.002  0.006  0.023
   11  0.015  0.002  0.029  0.046
   12  0.004  0.001  0.022  0.027
   13  0.015  0.002  0.029  0.045
   14  0.059  0.001  0.007  0.068
   15  0.004  0.003  0.006  0.013
   16  0.004  0.001  0.022  0.026
   17  0.004  0.003  0.006  0.013
   18  0.014  0.000  0.015  0.030
   19  0.000  0.002  0.007  0.010
   20  0.050  0.001  0.012  0.062
   21  0.012  0.003  0.020  0.035
   22  0.009  0.000  0.030  0.039
   23  0.013  0.003  0.019  0.035
   24  0.036  0.002  0.003  0.041
   25  0.001  0.000  0.013  0.014
   26  0.000  0.003  0.007  0.009
   27  0.009  0.001  0.029  0.039
   28  0.000  0.000  0.001  0.001
   29  0.007  0.001  0.003  0.011
   30  0.000  0.000  0.003  0.004
   31  0.007  0.001  0.003  0.011
   32  0.004  0.001  0.002  0.007
   33  0.000  0.000  0.003  0.004
   34  0.004  0.001  0.002  0.007
   35  0.000  0.000  0.007  0.007
   36  0.000  0.002  0.002  0.004
   37  0.000  0.000  0.000  0.000
tot    0.308  0.043  0.343  0.693
 
band     8 # energy   -6.00931777 # occ.  2.00000000
 
ion      s      p      d    tot
    1  0.007  0.001  0.001  0.009
    2  0.000  0.001  0.006  0.007
    3  0.000  0.001  0.006  0.007
    4  0.000  0.001  0.006  0.007
    5  0.017  0.002  0.001  0.020
    6  0.000  0.001  0.006  0.007
    7  0.000  0.001  0.006  0.007
    8  0.000  0.001  0.006  0.007
    9  0.000  0.000  0.002  0.002
   10  0.027  0.003  0.002  0.032
   11  0.019  0.001  0.023  0.043
   12  0.026  0.003  0.002  0.031
   13  0.019  0.001  0.023  0.043
   14  0.020  0.001  0.023  0.043
   15  0.000  0.001  0.024  0.025
   16  0.026  0.003  0.002  0.031
   17  0.000  0.001  0.024  0.025
   18  0.000  0.001  0.023  0.025
   19  0.027  0.002  0.006  0.035
   20  0.005  0.002  0.015  0.022
   21  0.005  0.002  0.015  0.023
   22  0.009  0.000  0.026  0.035
   23  0.005  0.002  0.015  0.023
   24  0.009  0.000  0.026  0.035
   25  0.026  0.002  0.006  0.035
   26  0.027  0.002  0.006  0.035
   27  0.009  0.000  0.026  0.035
   28  0.010  0.001  0.001  0.012
   29  0.000  0.000  0.004  0.005
   30  0.000  0.000  0.004  0.005
   31  0.000  0.000  0.004  0.005
   32  0.000  0.000  0.004  0.005
   33  0.000  0.000  0.004  0.005
   34  0.000  0.000  0.004  0.005
   35  0.005  0.001  0.002  0.008
   36  0.001  0.000  0.000  0.001
   37  0.000  0.000  0.000  0.000
tot    0.301  0.041  0.352  0.694
 
band     9 # energy   -5.99520279 # occ.  2.00000000
 
ion      s      p      d    tot
    1  0.000  0.001  0.006  0.007
    2  0.007  0.001  0.004  0.012
    3  0.005  0.001  0.003  0.009
    4  0.007  0.001  0.004  0.012
    5  0.000  0.000  0.002  0.002
    6  0.000  0.000  0.003  0.004
    7  0.005  0.001  0.003  0.009
    8  0.000  0.000  0.003  0.004
    9  0.000  0.001  0.010  0.011
   10  0.046  0.001  0.014  0.061
   11  0.000  0.002  0.010  0.013
   12  0.011  0.003  0.015  0.029
   13  0.000  0.002  0.010  0.013
   14  0.000  0.001  0.013  0.013
   15  0.012  0.001  0.034  0.047
   16  0.012  0.003  0.015  0.030
   17  0.012  0.001  0.035  0.047
   18  0.048  0.002  0.003  0.053
   19  0.013  0.001  0.028  0.043
   20  0.010  0.001  0.007  0.019
   21  0.002  0.001  0.020  0.023
   22  0.004  0.003  0.008  0.016
   23  0.003  0.001  0.020  0.023
   24  0.019  0.000  0.015  0.034
   25  0.052  0.002  0.005  0.059
   26  0.013  0.001  0.028  0.043
   27  0.005  0.003  0.008  0.016
   28  0.000  0.001  0.007  0.007
   29  0.000  0.000  0.002  0.002
   30  0.004  0.001  0.002  0.007
   31  0.000  0.000  0.002  0.002
   32  0.003  0.001  0.003  0.006
   33  0.004  0.001  0.002  0.007
   34  0.003  0.001  0.003  0.006
   35  0.000  0.000  0.002  0.002
   36  0.000  0.000  0.001  0.001
   37  0.000  0.000  0.000  0.000
tot    0.301  0.042  0.351  0.694
 
band    10 # energy   -5.99515892 # occ.  2.00000000
 
ion      s      p      d    tot
    1  0.000  0.001  0.006  0.007
    2  0.001  0.000  0.003  0.005
    3  0.003  0.001  0.004  0.008
    4  0.001  0.000  0.003  0.005
    5  0.000  0.000  0.002  0.002
    6  0.008  0.001  0.004  0.013
    7  0.003  0.001  0.004  0.007
    8  0.008  0.001  0.004  0.013
    9  0.000  0.001  0.010  0.011
   10  0.000  0.004  0.015  0.019
   11  0.000  0.001  0.012  0.013
   12  0.035  0.001  0.014  0.051
   13  0.000  0.001  0.012  0.013
   14  0.000  0.003  0.010  0.013
   15  0.036  0.001  0.014  0.051
   16  0.035  0.001  0.014  0.050
   17  0.036  0.001  0.013  0.051
   18  0.000  0.000  0.045  0.045
   19  0.039  0.002  0.013  0.053
   20  0.000  0.001  0.024  0.025
   21  0.007  0.001  0.011  0.020
   22  0.014  0.001  0.013  0.028
   23  0.007  0.001  0.012  0.020
   24  0.000  0.004  0.006  0.010
   25  0.000  0.001  0.036  0.037
   26  0.039  0.002  0.012  0.054
   27  0.014  0.001  0.013  0.028
   28  0.000  0.001  0.007  0.007
   29  0.004  0.001  0.003  0.008
   30  0.000  0.000  0.003  0.003
   31  0.004  0.001  0.003  0.008
   32  0.002  0.001  0.002  0.004
   33  0.000  0.000  0.003  0.003
   34  0.002  0.001  0.002  0.004
   35  0.000  0.000  0.002  0.002
   36  0.000  0.000  0.001  0.001
   37  0.000  0.000  0.000  0.000
tot    0.301  0.042  0.351  0.694
 
band    11 # energy   -5.85577628 # occ.  2.00000000
 
ion      s      p      d    tot
    1  0.001  0.000  0.000  0.001
    2  0.001  0.000  0.001  0.001
    3  0.001  0.000  0.001  0.001
    4  0.001  0.000  0.001  0.001
    5  0.002  0.000  0.000  0.002
    6  0.001  0.000  0.001  0.001
    7  0.001  0.000  0.001  0.001
    8  0.001  0.000  0.001  0.001
    9  0.000  0.000  0.001  0.001
   10  0.000  0.000  0.003  0.003
   11  0.001  0.000  0.002  0.003
   12  0.000  0.000  0.003  0.003
   13  0.001  0.000  0.002  0.003
   14  0.001  0.000  0.002  0.003
   15  0.002  0.000  0.003  0.005
   16  0.000  0.000  0.003  0.003
   17  0.002  0.000  0.003  0.005
   18  0.002  0.000  0.003  0.005
   19  0.004  0.001  0.020  0.025
   20  0.003  0.000  0.027  0.030
   21  0.003  0.000  0.027  0.030
   22  0.009  0.001  0.025  0.035
   23  0.003  0.000  0.027  0.030
   24  0.009  0.001  0.025  0.035
   25  0.004  0.001  0.020  0.025
   26  0.004  0.001  0.020  0.025
   27  0.009  0.001  0.025  0.035
   28  0.030  0.000  0.022  0.052
   29  0.025  0.000  0.022  0.047
   30  0.025  0.000  0.022  0.047
   31  0.025  0.000  0.022  0.047
   32  0.025  0.000  0.022  0.047
   33  0.025  0.000  0.022  0.047
   34  0.025  0.000  0.022  0.047
   35  0.029  0.000  0.023  0.053
   36  0.005  0.000  0.013  0.018
   37  0.001  0.000  0.000  0.002
tot    0.275  0.013  0.432  0.720
 
band    12 # energy   -5.54162301 # occ.  2.00000000
 
ion      s      p      d    tot
    1  0.013  0.002  0.002  0.017
    2  0.000  0.001  0.009  0.009
    3  0.000  0.001  0.009  0.009
    4  0.000  0.001  0.009  0.009
    5  0.001  0.000  0.002  0.002
    6  0.000  0.001  0.009  0.009
    7  0.000  0.001  0.009  0.009
    8  0.000  0.001  0.009  0.009
    9  0.019  0.002  0.000  0.020
   10  0.011  0.001  0.014  0.026
   11  0.002  0.000  0.045  0.047
   12  0.011  0.001  0.014  0.026
   13  0.002  0.000  0.045  0.047
   14  0.002  0.000  0.045  0.047
   15  0.004  0.001  0.022  0.027
   16  0.011  0.001  0.014  0.026
   17  0.004  0.001  0.022  0.027
   18  0.004  0.001  0.022  0.027
   19  0.004  0.001  0.016  0.020
   20  0.002  0.000  0.048  0.050
   21  0.002  0.000  0.048  0.050
   22  0.011  0.001  0.016  0.028
   23  0.002  0.000  0.048  0.050
   24  0.011  0.001  0.016  0.028
   25  0.004  0.001  0.016  0.021
   26  0.004  0.001  0.016  0.020
   27  0.011  0.001  0.016  0.028
   28  0.010  0.001  0.000  0.011
   29  0.000  0.001  0.005  0.006
   30  0.000  0.001  0.006  0.006
   31  0.000  0.001  0.005  0.006
   32  0.000  0.001  0.005  0.006
   33  0.000  0.001  0.006  0.006
   34  0.000  0.001  0.005  0.006
   35  0.009  0.001  0.002  0.013
   36  0.000  0.000  0.002  0.002
   37  0.000  0.000  0.000  0.000
tot    0.151  0.028  0.574  0.753
 
band    13 # energy   -5.53992438 # occ.  2.00000000
 
ion      s      p      d    tot
    1  0.000  0.001  0.004  0.005
    2  0.000  0.001  0.005  0.006
    3  0.009  0.001  0.005  0.015
    4  0.000  0.001  0.005  0.006
    5  0.000  0.001  0.011  0.013
    6  0.005  0.001  0.004  0.010
    7  0.009  0.001  0.005  0.015
    8  0.005  0.001  0.004  0.010
    9  0.000  0.000  0.009  0.009
   10  0.000  0.001  0.051  0.052
   11  0.016  0.001  0.021  0.038
   12  0.008  0.002  0.019  0.028
   13  0.016  0.001  0.021  0.038
   14  0.000  0.000  0.050  0.050
   15  0.002  0.001  0.020  0.022
   16  0.008  0.002  0.018  0.028
   17  0.001  0.001  0.020  0.022
   18  0.000  0.002  0.010  0.012
   19  0.007  0.000  0.019  0.027
   20  0.000  0.000  0.066  0.066
   21  0.017  0.001  0.021  0.040
   22  0.002  0.001  0.019  0.022
   23  0.017  0.001  0.021  0.039
   24  0.000  0.001  0.032  0.033
   25  0.000  0.001  0.015  0.016
   26  0.007  0.000  0.019  0.027
   27  0.002  0.001  0.019  0.022
   28  0.000  0.001  0.008  0.009
   29  0.002  0.000  0.004  0.006
   30  0.010  0.001  0.004  0.015
   31  0.002  0.000  0.004  0.006
   32  0.004  0.001  0.004  0.009
   33  0.010  0.001  0.004  0.015
   34  0.004  0.001  0.004  0.009
   35  0.000  0.000  0.003  0.004
   36  0.000  0.002  0.002  0.004
   37  0.000  0.000  0.000  0.000
tot    0.162  0.033  0.551  0.746
 
band    14 # energy   -5.53991785 # occ.  2.00000000
 
ion      s      p      d    tot
    1  0.000  0.001  0.004  0.005
    2  0.009  0.001  0.004  0.015
    3  0.001  0.000  0.004  0.006
    4  0.009  0.001  0.004  0.015
    5  0.000  0.001  0.011  0.013
    6  0.004  0.001  0.005  0.011
    7  0.001  0.000  0.004  0.006
    8  0.004  0.001  0.005  0.011
    9  0.000  0.000  0.009  0.009
   10  0.010  0.002  0.008  0.020
   11  0.005  0.000  0.041  0.047
   12  0.003  0.001  0.040  0.043
   13  0.006  0.000  0.040  0.046
   14  0.022  0.001  0.011  0.034
   15  0.001  0.001  0.013  0.015
   16  0.002  0.001  0.040  0.044
   17  0.001  0.001  0.013  0.015
   18  0.002  0.000  0.023  0.025
   19  0.002  0.001  0.017  0.020
   20  0.023  0.002  0.006  0.031
   21  0.006  0.000  0.051  0.057
   22  0.001  0.001  0.028  0.029
   23  0.005  0.000  0.051  0.057
   24  0.003  0.001  0.014  0.018
   25  0.009  0.000  0.020  0.030
   26  0.002  0.001  0.017  0.020
   27  0.001  0.001  0.028  0.030
   28  0.000  0.001  0.008  0.009
   29  0.008  0.001  0.004  0.014
   30  0.000  0.001  0.004  0.005
   31  0.009  0.001  0.004  0.014
   32  0.007  0.001  0.004  0.011
   33  0.000  0.001  0.004  0.005
   34  0.006  0.001  0.004  0.011
   35  0.000  0.000  0.003  0.004
   36  0.000  0.002  0.002  0.004
   37  0.000  0.000  0.000  0.000
tot    0.162  0.033  0.551  0.746
 
band    15 # energy   -5.52740480 # occ.  2.00000000
 
ion      s      p      d    tot
    1  0.008  0.000  0.000  0.009
    2  0.000  0.001  0.008  0.009
    3  0.000  0.001  0.008  0.009
    4  0.000  0.001  0.008  0.009
    5  0.018  0.002  0.001  0.021
    6  0.000  0.001  0.008  0.009
    7  0.000  0.001  0.008  0.009
    8  0.000  0.001  0.008  0.009
    9  0.003  0.001  0.002  0.005
   10  0.000  0.000  0.039  0.040
   11  0.008  0.002  0.008  0.018
   12  0.000  0.000  0.040  0.040
   13  0.008  0.002  0.008  0.018
   14  0.008  0.002  0.008  0.018
   15  0.007  0.001  0.029  0.037
   16  0.000  0.000  0.040  0.040
   17  0.007  0.001  0.029  0.037
   18  0.007  0.001  0.029  0.037
   19  0.011  0.001  0.035  0.047
   20  0.008  0.002  0.009  0.019
   21  0.008  0.002  0.009  0.020
   22  0.000  0.000  0.038  0.038
   23  0.008  0.002  0.009  0.020
   24  0.000  0.000  0.038  0.039
   25  0.011  0.001  0.036  0.047
   26  0.011  0.001  0.035  0.047
   27  0.000  0.000  0.038  0.038
   28  0.001  0.001  0.005  0.007
   29  0.000  0.000  0.006  0.007
   30  0.000  0.000  0.006  0.007
   31  0.000  0.000  0.006  0.007
   32  0.000  0.000  0.006  0.007
   33  0.000  0.000  0.006  0.007
   34  0.000  0.000  0.006  0.007
   35  0.002  0.000  0.000  0.002
   36  0.013  0.003  0.000  0.017
   37  0.001  0.001  0.000  0.003
tot    0.151  0.032  0.572  0.755
 
band    16 # energy   -5.50402149 # occ.  2.00000000
 
ion      s      p      d    tot
    1  0.000  0.001  0.014  0.014
    2  0.010  0.001  0.005  0.016
    3  0.002  0.000  0.005  0.007
    4  0.010  0.001  0.005  0.016
    5  0.000  0.000  0.005  0.005
    6  0.003  0.001  0.005  0.010
    7  0.002  0.000  0.005  0.007
    8  0.003  0.001  0.005  0.010
    9  0.000  0.001  0.008  0.009
   10  0.000  0.001  0.026  0.027
   11  0.001  0.001  0.020  0.022
   12  0.007  0.000  0.022  0.030
   13  0.001  0.001  0.020  0.022
   14  0.000  0.001  0.022  0.024
   15  0.013  0.002  0.021  0.035
   16  0.007  0.000  0.022  0.030
   17  0.013  0.002  0.021  0.035
   18  0.000  0.000  0.065  0.065
   19  0.012  0.001  0.020  0.033
   20  0.000  0.002  0.017  0.019
   21  0.000  0.001  0.021  0.022
   22  0.018  0.001  0.021  0.039
   23  0.000  0.001  0.021  0.022
   24  0.000  0.000  0.036  0.036
   25  0.000  0.000  0.065  0.066
   26  0.012  0.001  0.020  0.033
   27  0.017  0.001  0.021  0.039
   28  0.000  0.001  0.004  0.005
   29  0.006  0.001  0.004  0.011
   30  0.000  0.000  0.004  0.005
   31  0.006  0.001  0.004  0.011
   32  0.003  0.001  0.002  0.006
   33  0.000  0.000  0.004  0.005
   34  0.003  0.001  0.002  0.006
   35  0.000  0.001  0.008  0.009
   36  0.000  0.000  0.001  0.001
   37  0.000  0.000  0.000  0.000
tot    0.150  0.029  0.572  0.751
 
band    17 # energy   -5.50400030 # occ.  2.00000000
 
ion      s      p      d    tot
    1  0.000  0.001  0.014  0.014
    2  0.000  0.000  0.005  0.006
    3  0.008  0.001  0.005  0.015
    4  0.000  0.000  0.005  0.006
    5  0.000  0.000  0.005  0.005
    6  0.007  0.001  0.004  0.012
    7  0.008  0.001  0.005  0.015
    8  0.007  0.001  0.005  0.012
    9  0.000  0.001  0.008  0.009
   10  0.009  0.000  0.021  0.031
   11  0.000  0.001  0.021  0.023
   12  0.002  0.001  0.025  0.028
   13  0.000  0.001  0.021  0.023
   14  0.001  0.001  0.019  0.021
   15  0.004  0.001  0.050  0.055
   16  0.002  0.001  0.025  0.028
   17  0.004  0.001  0.051  0.055
   18  0.017  0.002  0.006  0.025
   19  0.004  0.001  0.050  0.055
   20  0.001  0.000  0.023  0.023
   21  0.000  0.001  0.018  0.020
   22  0.006  0.000  0.031  0.037
   23  0.000  0.001  0.018  0.020
   24  0.023  0.001  0.016  0.040
   25  0.016  0.001  0.005  0.022
   26  0.004  0.001  0.050  0.055
   27  0.006  0.000  0.031  0.037
   28  0.000  0.001  0.004  0.005
   29  0.001  0.000  0.003  0.004
   30  0.006  0.001  0.003  0.010
   31  0.001  0.000  0.003  0.004
   32  0.003  0.001  0.005  0.008
   33  0.006  0.001  0.003  0.010
   34  0.003  0.001  0.005  0.008
   35  0.000  0.001  0.008  0.009
   36  0.000  0.000  0.001  0.001
   37  0.000  0.000  0.000  0.000
tot    0.150  0.029  0.572  0.751
 
band    18 # energy   -5.15514001 # occ.  2.00000000
 
ion      s      p      d    tot
    1  0.000  0.001  0.014  0.014
    2  0.000  0.000  0.012  0.013
    3  0.008  0.000  0.015  0.024
    4  0.000  0.000  0.013  0.013
    5  0.000  0.000  0.032  0.032
    6  0.007  0.001  0.010  0.018
    7  0.008  0.000  0.015  0.023
    8  0.007  0.001  0.009  0.017
    9  0.000  0.001  0.009  0.011
   10  0.000  0.000  0.015  0.016
   11  0.000  0.000  0.041  0.041
   12  0.000  0.000  0.008  0.009
   13  0.000  0.000  0.041  0.041
   14  0.000  0.000  0.039  0.039
   15  0.000  0.000  0.034  0.034
   16  0.000  0.000  0.009  0.009
   17  0.000  0.000  0.033  0.033
   18  0.000  0.000  0.048  0.049
   19  0.000  0.000  0.012  0.012
   20  0.001  0.000  0.042  0.043
   21  0.000  0.000  0.030  0.030
   22  0.000  0.000  0.036  0.037
   23  0.000  0.000  0.030  0.031
   24  0.000  0.000  0.040  0.040
   25  0.001  0.000  0.012  0.012
   26  0.000  0.000  0.012  0.012
   27  0.000  0.000  0.037  0.037
   28  0.000  0.000  0.015  0.015
   29  0.007  0.001  0.012  0.020
   30  0.000  0.001  0.009  0.009
   31  0.007  0.001  0.012  0.020
   32  0.010  0.001  0.007  0.018
   33  0.000  0.001  0.009  0.010
   34  0.010  0.001  0.008  0.018
   35  0.000  0.000  0.020  0.020
   36  0.000  0.002  0.001  0.003
   37  0.000  0.000  0.000  0.000
tot    0.068  0.016  0.739  0.823
 
band    19 # energy   -5.15513935 # occ.  2.00000000
 
ion      s      p      d    tot
    1  0.000  0.001  0.014  0.014
    2  0.010  0.001  0.012  0.023
    3  0.002  0.001  0.010  0.012
    4  0.010  0.001  0.012  0.023
    5  0.000  0.000  0.032  0.032
    6  0.003  0.000  0.015  0.018
    7  0.002  0.001  0.010  0.012
    8  0.003  0.000  0.015  0.019
    9  0.000  0.001  0.009  0.011
   10  0.000  0.000  0.006  0.006
   11  0.000  0.000  0.040  0.040
   12  0.000  0.000  0.013  0.014
   13  0.000  0.000  0.040  0.040
   14  0.000  0.000  0.042  0.042
   15  0.000  0.000  0.043  0.043
   16  0.000  0.000  0.013  0.013
   17  0.000  0.000  0.044  0.044
   18  0.000  0.000  0.029  0.029
   19  0.000  0.000  0.012  0.012
   20  0.000  0.000  0.026  0.026
   21  0.001  0.000  0.038  0.039
   22  0.000  0.000  0.039  0.039
   23  0.001  0.000  0.037  0.038
   24  0.000  0.000  0.035  0.035
   25  0.000  0.000  0.011  0.012
   26  0.000  0.000  0.012  0.012
   27  0.000  0.000  0.039  0.039
   28  0.000  0.000  0.015  0.015
   29  0.004  0.001  0.007  0.012
   30  0.011  0.001  0.010  0.022
   31  0.005  0.001  0.007  0.012
   32  0.002  0.001  0.011  0.014
   33  0.011  0.001  0.010  0.022
   34  0.001  0.001  0.011  0.013
   35  0.000  0.000  0.020  0.020
   36  0.000  0.002  0.001  0.003
   37  0.000  0.000  0.000  0.000
tot    0.068  0.016  0.739  0.823
 
band    20 # energy   -5.14263422 # occ.  2.00000000
 
ion      s      p      d    tot
    1  0.016  0.001  0.002  0.019
    2  0.000  0.001  0.014  0.015
    3  0.000  0.001  0.014  0.015
    4  0.000  0.001  0.014  0.015
    5  0.006  0.000  0.014  0.020
    6  0.000  0.001  0.014  0.015
    7  0.000  0.001  0.014  0.015
    8  0.000  0.001  0.014  0.015
    9  0.002  0.001  0.005  0.008
   10  0.000  0.000  0.026  0.027
   11  0.000  0.000  0.042  0.042
   12  0.000  0.000  0.026  0.027
   13  0.000  0.000  0.042  0.042
   14  0.000  0.000  0.042  0.043
   15  0.000  0.000  0.036  0.037
   16  0.000  0.000  0.026  0.027
   17  0.000  0.000  0.036  0.037
   18  0.000  0.000  0.036  0.037
   19  0.000  0.000  0.025  0.025
   20  0.001  0.000  0.033  0.033
   21  0.001  0.000  0.032  0.033
   22  0.001  0.000  0.031  0.032
   23  0.001  0.000  0.032  0.033
   24  0.001  0.000  0.031  0.032
   25  0.000  0.000  0.024  0.025
   26  0.000  0.000  0.025  0.025
   27  0.001  0.000  0.031  0.032
   28  0.012  0.001  0.000  0.013
   29  0.000  0.001  0.012  0.013
   30  0.000  0.001  0.012  0.013
   31  0.000  0.001  0.012  0.013
   32  0.000  0.001  0.012  0.013
   33  0.000  0.001  0.012  0.013
   34  0.000  0.001  0.012  0.013
   35  0.011  0.000  0.004  0.015
   36  0.000  0.000  0.005  0.005
   37  0.000  0.000  0.000  0.001
tot    0.053  0.014  0.763  0.830
 
band    21 # energy   -5.12992780 # occ.  2.00000000
 
ion      s      p      d    tot
    1  0.000  0.000  0.011  0.012
    2  0.000  0.001  0.019  0.019
    3  0.000  0.001  0.019  0.020
    4  0.000  0.001  0.019  0.019
    5  0.018  0.001  0.000  0.019
    6  0.000  0.001  0.019  0.020
    7  0.000  0.001  0.019  0.020
    8  0.000  0.001  0.019  0.020
    9  0.021  0.000  0.010  0.031
   10  0.000  0.000  0.044  0.044
   11  0.000  0.001  0.036  0.037
   12  0.000  0.000  0.044  0.044
   13  0.000  0.001  0.036  0.037
   14  0.000  0.001  0.036  0.036
   15  0.000  0.000  0.032  0.033
   16  0.000  0.000  0.044  0.044
   17  0.000  0.000  0.032  0.033
   18  0.000  0.000  0.033  0.033
   19  0.001  0.000  0.025  0.027
   20  0.000  0.000  0.033  0.033
   21  0.000  0.000  0.033  0.033
   22  0.000  0.000  0.017  0.017
   23  0.000  0.000  0.033  0.033
   24  0.000  0.000  0.017  0.017
   25  0.001  0.000  0.025  0.027
   26  0.001  0.000  0.025  0.027
   27  0.000  0.000  0.017  0.017
   28  0.003  0.000  0.005  0.007
   29  0.000  0.000  0.009  0.010
   30  0.000  0.000  0.009  0.010
   31  0.000  0.000  0.009  0.010
   32  0.000  0.000  0.009  0.010
   33  0.000  0.000  0.009  0.010
   34  0.000  0.000  0.009  0.010
   35  0.000  0.000  0.002  0.003
   36  0.006  0.000  0.003  0.009