 vasp.6.2.0 18Jan21 (build Jun 12 2021 23:27:24) complex                        
  
 executed on             LinuxIFC date 2022.05.26  19:45:46
 running on   28 total cores
 distrk:  each k-point on   28 cores,    1 groups
 distr:  one band on NCORE=   1 cores,   28 groups


--------------------------------------------------------------------------------------------------------


 INCAR:
   ISMEAR = -5
   SIGMA = 0.1
   ISPIN = 1
   EDIFF = 1.d-5
   EDIFFG = -0.01
   NSW = 0
   NELM = 150
   ENCUT = 500
   ISIF = 2
   IBRION = 2
   LREAL = Auto
   ALGO = Fast
   ICHARG = 11
   LORBIT = 10
   LCHARG = .F.
   LWAVE = .F.

 POTCAR:    PAW_PBE Ag 02Apr2005                  
 POTCAR:    PAW_PBE Nb_sv 25May2007               
 POTCAR:    PAW_PBE H 15Jun2001                   
 -----------------------------------------------------------------------------
|                                                                             |
|           W    W    AA    RRRRR   N    N  II  N    N   GGGG   !!!           |
|           W    W   A  A   R    R  NN   N  II  NN   N  G    G  !!!           |
|           W    W  A    A  R    R  N N  N  II  N N  N  G       !!!           |
|           W WW W  AAAAAA  RRRRR   N  N N  II  N  N N  G  GGG   !            |
|           WW  WW  A    A  R   R   N   NN  II  N   NN  G    G                |
|           W    W  A    A  R    R  N    N  II  N    N   GGGG   !!!           |
|                                                                             |
|     For optimal performance we recommend to set                             |
|       NCORE = 2 up to number-of-cores-per-socket                            |
|     NCORE specifies how many cores store one orbital (NPAR=cpu/NCORE).      |
|     This setting can greatly improve the performance of VASP for DFT.       |
|     The default, NCORE=1 might be grossly inefficient on modern             |
|     multi-core architectures or massively parallel machines. Do your        |
|     own testing! More info at https://www.vasp.at/wiki/index.php/NCORE      |
|     Unfortunately you need to use the default for GW and RPA                |
|     calculations (for HF NCORE is supported but not extensively tested      |
|     yet).                                                                   |
|                                                                             |
 -----------------------------------------------------------------------------

 POTCAR:    PAW_PBE Ag 02Apr2005                  
   VRHFIN =Ag : s1 d10                                                                              
   LEXCH  = PE                                                                                      
   EATOM  =  1037.2675 eV,   76.2370 Ry                                                             
                                                                                                    
   TITEL  = PAW_PBE Ag 02Apr2005                                                                    
   LULTRA =        F    use ultrasoft PP ?                                                          
   IUNSCR =        1    unscreen: 0-lin 1-nonlin 2-no                                               
   RPACOR =    2.000    partial core radius                                                         
   POMASS =  107.868; ZVAL   =   11.000    mass and valenz                                          
   RCORE  =    2.500    outmost cutoff radius                                                       
   RWIGS  =    2.840; RWIGS  =    1.503    wigner-seitz radius (au A)                               
   ENMAX  =  249.844; ENMIN  =  187.383 eV                                                          
   ICORE  =        3    local potential                                                             
   LCOR   =        T    correct aug charges                                                         
   LPAW   =        T    paw PP                                                                      
   EAUG   =  412.496                                                                                
   DEXC   =    0.000                                                                                
   RMAX   =    2.560    core radius for proj-oper                                                   
   RAUG   =    1.300    factor for augmentation sphere                                              
   RDEP   =    2.576    radius for radial grids                                                     
   RDEPT  =    2.072    core radius for aug-charge                                                  
                                                                                                    
   Atomic configuration                                                                             
   12 entries                                                                                       
     n  l   j            E        occ.                                                              
     1  0  0.50    -25324.9161   2.0000                                                             
     2  0  0.50     -3728.5341   2.0000                                                             
     2  1  1.50     -3344.0404   6.0000                                                             
     3  0  0.50      -683.5581   2.0000                                                             
     3  1  1.50      -557.3225   6.0000                                                             
     3  2  2.50      -358.3853  10.0000                                                             
     4  0  0.50       -95.0341   2.0000                                                             
     4  1  1.50       -58.5511   6.0000                                                             
     4  2  2.50        -7.4440  10.0000                                                             
     5  0  0.50        -4.4045   1.0000                                                             
     5  1  0.50        -1.3606   0.0000                                                             
     4  3  2.50        -1.3606   0.0000                                                             
   Description                                                                                      
     l       E           TYP  RCUT    TYP  RCUT                                                     
     2     -7.4439781     23  2.400                                                                 
     2     -8.8045607     23  2.400                                                                 
     0     -4.4044681     23  2.400                                                                 
     0      1.9520038     23  2.400                                                                 
     1     -1.3605826     23  2.500                                                                 
     1     27.2116520     23  2.500                                                                 
     3     -4.0817478     23  2.400                                                                 
  local pseudopotential read in
  partial core-charges read in
  partial kinetic energy density read in
  atomic valenz-charges read in
  non local Contribution for L=           2  read in
    real space projection operators read in
  non local Contribution for L=           2  read in
    real space projection operators read in
  non local Contribution for L=           0  read in
    real space projection operators read in
  non local Contribution for L=           0  read in
    real space projection operators read in
  non local Contribution for L=           1  read in
    real space projection operators read in
  non local Contribution for L=           1  read in
    real space projection operators read in
    PAW grid and wavefunctions read in
 
   number of l-projection  operators is LMAX  =           6
   number of lm-projection operators is LMMAX =          18
 
 POTCAR:    PAW_PBE Nb_sv 25May2007               
   VRHFIN =Nb: 4p5s4d                                                                               
   LEXCH  = PE                                                                                      
   EATOM  =  1555.1913 eV,  114.3033 Ry                                                             
                                                                                                    
   TITEL  = PAW_PBE Nb_sv 25May2007                                                                 
   LULTRA =        F    use ultrasoft PP ?                                                          
   IUNSCR =        1    unscreen: 0-lin 1-nonlin 2-no                                               
   RPACOR =    1.800    partial core radius                                                         
   POMASS =   92.910; ZVAL   =   13.000    mass and valenz                                          
   RCORE  =    2.400    outmost cutoff radius                                                       
   RWIGS  =    2.400; RWIGS  =    1.270    wigner-seitz radius (au A)                               
   ENMAX  =  293.235; ENMIN  =  219.927 eV                                                          
   ICORE  =        3    local potential                                                             
   LCOR   =        T    correct aug charges                                                         
   LPAW   =        T    paw PP                                                                      
   EAUG   =  455.659                                                                                
   DEXC   =    0.000                                                                                
   RMAX   =    2.456    core radius for proj-oper                                                   
   RAUG   =    1.300    factor for augmentation sphere                                              
   RDEP   =    2.451    radius for radial grids                                                     
   RDEPT  =    1.956    core radius for aug-charge                                                  
                                                                                                    
   Atomic configuration                                                                             
   11 entries                                                                                       
     n  l   j            E        occ.                                                              
     1  0  0.50    -18805.2457   2.0000                                                             
     2  0  0.50     -2630.2869   2.0000                                                             
     2  1  1.50     -2348.4046   6.0000                                                             
     3  0  0.50      -438.8757   2.0000                                                             
     3  1  1.50      -346.7588   6.0000                                                             
     3  2  2.50      -196.2560  10.0000                                                             
     4  0  0.50       -58.3859   2.0000                                                             
     5  0  0.50        -3.9816   1.0000                                                             
     4  1  1.50       -34.5141   6.0000                                                             
     4  2  2.50        -3.0408   4.0000                                                             
     4  3  2.50        -1.3606   0.0000                                                             
   Description                                                                                      
     l       E           TYP  RCUT    TYP  RCUT                                                     
     0    -58.3859094     23  2.200                                                                 
     0     -3.9816262     23  2.200                                                                 
     1    -34.5140738     23  2.200                                                                 
     1     13.6058260     23  2.200                                                                 
     2     -3.0408010     23  2.200                                                                 
     2     -0.1283038     23  2.200                                                                 
     3     -1.3605826     23  2.400                                                                 
  local pseudopotential read in
  partial core-charges read in
  partial kinetic energy density read in
  atomic valenz-charges read in
  non local Contribution for L=           0  read in
    real space projection operators read in
  non local Contribution for L=           0  read in
    real space projection operators read in
  non local Contribution for L=           1  read in
    real space projection operators read in
  non local Contribution for L=           1  read in
    real space projection operators read in
  non local Contribution for L=           2  read in
    real space projection operators read in
  non local Contribution for L=           2  read in
    real space projection operators read in
    PAW grid and wavefunctions read in
 
   number of l-projection  operators is LMAX  =           6
   number of lm-projection operators is LMMAX =          18
 
 POTCAR:    PAW_PBE H 15Jun2001                   
   VRHFIN =H: ultrasoft test                                                                        
   LEXCH  = PE                                                                                      
   EATOM  =    12.4884 eV,    0.9179 Ry                                                             
                                                                                                    
   TITEL  = PAW_PBE H 15Jun2001                                                                     
   LULTRA =        F    use ultrasoft PP ?                                                          
   IUNSCR =        0    unscreen: 0-lin 1-nonlin 2-no                                               
   RPACOR =    0.000    partial core radius                                                         
   POMASS =    1.000; ZVAL   =    1.000    mass and valenz                                          
   RCORE  =    1.100    outmost cutoff radius                                                       
   RWIGS  =    0.700; RWIGS  =    0.370    wigner-seitz radius (au A)                               
   ENMAX  =  250.000; ENMIN  =  200.000 eV                                                          
   RCLOC  =    0.701    cutoff for local pot                                                        
   LCOR   =        T    correct aug charges                                                         
   LPAW   =        T    paw PP                                                                      
   EAUG   =  400.000                                                                                
   RMAX   =    1.123    core radius for proj-oper                                                   
   RAUG   =    1.200    factor for augmentation sphere                                              
   RDEP   =    1.112    radius for radial grids                                                     
   RDEPT  =    0.926    core radius for aug-charge                                                  
                                                                                                    
   Atomic configuration                                                                             
    2 entries                                                                                       
     n  l   j            E        occ.                                                              
     1  0  0.50        -6.4927   1.0000                                                             
     2  1  0.50        -3.4015   0.0000                                                             
   Description                                                                                      
     l       E           TYP  RCUT    TYP  RCUT                                                     
     0     -6.4927494     23  1.100                                                                 
     0      6.8029130     23  1.100                                                                 
     1     -4.0817478     23  1.100                                                                 
  local pseudopotential read in
  atomic valenz-charges read in
  non local Contribution for L=           0  read in
    real space projection operators read in
  non local Contribution for L=           0  read in
    real space projection operators read in
  non local Contribution for L=           1  read in
    real space projection operators read in
    PAW grid and wavefunctions read in
 
   number of l-projection  operators is LMAX  =           3
   number of lm-projection operators is LMMAX =           5
 
 Optimization of the real space projectors (new method)

 maximal supplied QI-value         = 15.12
 optimisation between [QCUT,QGAM] = [ 11.34, 22.83] = [ 36.00,145.93] Ry 
 Optimized for a Real-space Cutoff    1.43 Angstroem

   l    n(q)    QCUT    max X(q) W(low)/X(q) W(high)/X(q)  e(spline) 
   2      9    11.338    53.897    0.16E-03    0.20E-03    0.28E-06
   2      9    11.338    52.416    0.16E-03    0.20E-03    0.29E-06
   0     10    11.338   122.045    0.31E-04    0.76E-04    0.15E-06
   0     10    11.338    73.629    0.30E-04    0.72E-04    0.15E-06
   1      9    11.338    15.255    0.20E-03    0.19E-04    0.17E-06
   1      9    11.338     9.562    0.16E-03    0.15E-04    0.14E-06
 Optimization of the real space projectors (new method)

 maximal supplied QI-value         = 15.68
 optimisation between [QCUT,QGAM] = [ 11.45, 22.90] = [ 36.71,146.85] Ry 
 Optimized for a Real-space Cutoff    1.56 Angstroem

   l    n(q)    QCUT    max X(q) W(low)/X(q) W(high)/X(q)  e(spline) 
   0     11    11.450    10.201    0.21E-04    0.96E-05    0.78E-07
   0     11    11.450     8.174    0.31E-04    0.18E-04    0.14E-06
   1     10    11.450     3.488    0.27E-04    0.12E-04    0.96E-07
   1     10    11.450     4.917    0.11E-03    0.11E-03    0.37E-06
   2     10    11.450   153.744    0.37E-03    0.81E-03    0.10E-05
   2     10    11.450   126.342    0.37E-03    0.81E-03    0.10E-05
 Optimization of the real space projectors (new method)

 maximal supplied QI-value         = 34.20
 optimisation between [QCUT,QGAM] = [ 11.29, 22.57] = [ 35.68,142.71] Ry 
 Optimized for a Real-space Cutoff    1.16 Angstroem

   l    n(q)    QCUT    max X(q) W(low)/X(q) W(high)/X(q)  e(spline) 
   0      8    11.287    19.460    0.40E-03    0.73E-03    0.16E-06
   0      8    11.287    12.209    0.38E-03    0.70E-03    0.15E-06
   1      7    11.287     4.655    0.22E-03    0.25E-04    0.22E-06
  PAW_PBE Ag 02Apr2005                  :
 energy of atom  1       EATOM=-1037.2675
 kinetic energy error for atom=    0.0052 (will be added to EATOM!!)
  PAW_PBE Nb_sv 25May2007               :
 energy of atom  2       EATOM=-1555.1913
 kinetic energy error for atom=    0.0069 (will be added to EATOM!!)
  PAW_PBE H 15Jun2001                   :
 energy of atom  3       EATOM=  -12.4884
 kinetic energy error for atom=    0.0020 (will be added to EATOM!!)
 
 
 POSCAR: Ag-Nb-H
  positions in direct lattice
  velocities in cartesian coordinates
 exchange correlation table for  LEXCH =        8
   RHO(1)=    0.500       N(1)  =     2000
   RHO(2)=  100.500       N(2)  =     4000

 VTST: version 3.2, (02/03/18)

 CHAIN: initializing optimizer
 
 OPT: Using VASP Conjugate-Gradient optimizer
 CHAIN: Read ICHAIN            0
 
 POSCAR: Ag-Nb-H
  positions in direct lattice
  velocities in cartesian coordinates
 


--------------------------------------------------------------------------------------------------------


 ion  position               nearest neighbor table
   1  0.000  0.000  0.238-   2 2.93   8 2.93   7 2.93   6 2.93   4 2.93  12 2.93  16 2.93  10 2.93
                             3 2.93
   2  0.333  0.000  0.238-   1 2.93   8 2.93   9 2.93   3 2.93   4 2.93   5 2.93  10 2.93  17 2.93
                            11 2.93
   3  0.667  0.000  0.238-   9 2.93   2 2.93   5 2.93  11 2.93   7 2.93  18 2.93   1 2.93   6 2.93
                            12 2.93
   4  0.000  0.333  0.238-   5 2.93   6 2.93   2 2.93   1 2.93   7 2.93  13 2.93  15 2.93   9 2.93
                            10 2.93
   5  0.333  0.333  0.238-   4 2.93   3 2.93   7 2.93   2 2.93   8 2.93  14 2.93  13 2.93  11 2.93
                             6 2.93
   6  0.667  0.333  0.238-   4 2.93   9 2.93   1 2.93  15 2.93   8 2.93  12 2.93   3 2.93   5 2.93
                            14 2.93
   7  0.000  0.667  0.238-   8 2.93   1 2.93   5 2.93   3 2.93   4 2.93  16 2.93  18 2.93  13 2.93
                             9 2.93
   8  0.333  0.667  0.238-   7 2.93   1 2.93   2 2.93   9 2.93   5 2.93  16 2.93   6 2.93  17 2.93
                            14 2.93
   9  0.667  0.667  0.238-   3 2.93   2 2.93   8 2.93   6 2.93  17 2.93   4 2.93  15 2.93   7 2.93
                            18 2.93
  10  0.111  0.111  0.346-  20 2.90  19 2.93  26 2.93  12 2.93  16 2.93  15 2.93  17 2.93  13 2.93
                            11 2.93   2 2.93   1 2.93   4 2.93
  11  0.444  0.111  0.346-  21 2.90  20 2.90  14 2.93  17 2.93  18 2.93   3 2.93  12 2.93  13 2.93
                            10 2.93   5 2.93   2 2.93  27 2.93
  12  0.778  0.111  0.346-  21 2.90  25 2.93  19 2.93  10 2.93  16 2.93  18 2.93  15 2.93  11 2.93
                             1 2.93  14 2.93   6 2.93   3 2.93
  13  0.111  0.444  0.346-  20 2.90  23 2.90  15 2.93  14 2.93  18 2.93  10 2.93  11 2.93  16 2.93
                             4 2.93   5 2.93   7 2.93  22 2.93
  14  0.444  0.444  0.346-  23 2.90  21 2.90  13 2.93  11 2.93  16 2.93   5 2.93  12 2.93  17 2.93
                             8 2.93  15 2.93   6 2.93  24 2.93
  15  0.778  0.444  0.346-  19 2.93  13 2.93  10 2.93  12 2.93  17 2.93  18 2.93   4 2.93   6 2.93
                             9 2.93  14 2.93  24 2.93  22 2.93
  16  0.111  0.778  0.346-  23 2.90  26 2.93  25 2.93  18 2.93  12 2.93  10 2.93  14 2.93  17 2.93
                            13 2.93   7 2.93   8 2.93   1 2.93
  17  0.444  0.778  0.346-  26 2.93  11 2.93  10 2.93   9 2.93  18 2.93  15 2.93  16 2.93   2 2.93
                            14 2.93   8 2.93  27 2.93  24 2.93
  18  0.778  0.778  0.346-  25 2.93  16 2.93  12 2.93  13 2.93  11 2.93  17 2.93  15 2.93   7 2.93
                             3 2.93   9 2.93  22 2.93  27 2.93
  19  0.889  0.222  0.454-  15 2.93  10 2.93  12 2.93  20 2.93  21 2.93  28 2.93  24 2.93  22 2.93
                            26 2.93  25 2.93  32 2.97  31 2.97
  20  0.222  0.222  0.452-  36 2.82  10 2.90  13 2.90  11 2.90  19 2.93  26 2.93  27 2.93  22 2.93
                            21 2.94  23 2.94  31 2.97  29 2.97
  21  0.556  0.222  0.452-  36 2.82  12 2.90  11 2.90  14 2.90  25 2.93  19 2.93  27 2.93  24 2.93
                            20 2.94  23 2.94  30 2.97  32 2.97
  22  0.889  0.556  0.454-  24 2.93  27 2.93  25 2.93  19 2.93  18 2.93  15 2.93  23 2.93  20 2.93
                            35 2.93  13 2.93  33 2.95  31 2.95
  23  0.222  0.556  0.452-  36 2.82  16 2.90  14 2.90  13 2.90  26 2.93  25 2.93  22 2.93  24 2.93
                            21 2.94  20 2.94  34 2.97  33 2.97
  24  0.556  0.556  0.454-  27 2.93  22 2.93  19 2.93  26 2.93  15 2.93  17 2.93  23 2.93  21 2.93
                            35 2.93  14 2.93  32 2.95  34 2.95
  25  0.889  0.889  0.454-  18 2.93  16 2.93  12 2.93  23 2.93  21 2.93  28 2.93  22 2.93  27 2.93
                            26 2.93  19 2.93  33 2.97  30 2.97
  26  0.222  0.889  0.454-  17 2.93  16 2.93  10 2.93  23 2.93  20 2.93  28 2.93  27 2.93  24 2.93
                            25 2.93  19 2.93  34 2.97  29 2.97
  27  0.556  0.889  0.454-  24 2.93  22 2.93  26 2.93  25 2.93  17 2.93  18 2.93  20 2.93  21 2.93
                            35 2.93  11 2.93  29 2.95  30 2.95
  28  0.000  0.000  0.561-  26 2.93  25 2.93  19 2.93  29 2.95  34 2.95  33 2.95  32 2.95  31 2.95
                            30 2.95
  29  0.333  0.004  0.563-  30 2.90  31 2.90  36 2.91  35 2.95  28 2.95  27 2.95  20 2.97  26 2.97
                            34 2.99
  30  0.663  0.004  0.563-  29 2.90  32 2.90  36 2.91  35 2.95  28 2.95  27 2.95  21 2.97  25 2.97
                            33 2.99
  31  0.004  0.333  0.563-  33 2.90  29 2.90  36 2.91  35 2.95  28 2.95  22 2.95  20 2.97  19 2.97
                            32 2.99
  32  0.663  0.333  0.563-  34 2.90  30 2.90  36 2.91  35 2.95  28 2.95  24 2.95  21 2.97  19 2.97
                            31 2.99
  33  0.004  0.663  0.563-  31 2.90  34 2.90  36 2.91  35 2.95  28 2.95  22 2.95  23 2.97  25 2.97
                            30 2.99
  34  0.333  0.663  0.563-  32 2.90  33 2.90  36 2.91  35 2.95  28 2.95  24 2.95  23 2.97  26 2.97
                            29 2.99
  35  0.667  0.667  0.562-  24 2.93  27 2.93  22 2.93  30 2.95  29 2.95  32 2.95  34 2.95  31 2.95
                            33 2.95
  36  0.333  0.333  0.554-  37 1.78  21 2.82  20 2.82  23 2.82  31 2.91  33 2.91  30 2.91  29 2.91
                            34 2.91  32 2.91
  37  0.333  0.333  0.634-  36 1.78
 
  LATTYP: Found a hexagonal cell.
 ALAT       =     8.7913665772
 C/A-ratio  =     2.5227160501
  
  Lattice vectors:
  
 A1 = (  -4.3956832886,  -7.6135467898,   0.0000000000)
 A2 = (   8.7913665771,   0.0000000000,   0.0000000000)
 A3 = (   0.0000000000,   0.0000000000,  22.1781215668)


Analysis of symmetry for initial positions (statically):
=====================================================================
 Subroutine PRICEL returns:
 Original cell was already a primitive cell.
 

 Routine SETGRP: Setting up the symmetry group for a 
 hexagonal supercell.


 Subroutine GETGRP returns: Found  6 space group operations
 (whereof  6 operations were pure point group operations)
 out of a pool of 24 trial point group operations.


The static configuration has the point symmetry C_3v.


Analysis of symmetry for dynamics (positions and initial velocities):
=====================================================================
 Subroutine PRICEL returns:
 Original cell was already a primitive cell.
 

 Routine SETGRP: Setting up the symmetry group for a 
 hexagonal supercell.


 Subroutine GETGRP returns: Found  6 space group operations
 (whereof  6 operations were pure point group operations)
 out of a pool of 24 trial point group operations.


The dynamic configuration has the point symmetry C_3v.


Analysis of constrained symmetry for selective dynamics:
=====================================================================
 Subroutine PRICEL returns:
 Original cell was already a primitive cell.
 

 Routine SETGRP: Setting up the symmetry group for a 
 hexagonal supercell.


 Subroutine GETGRP returns: Found  6 space group operations
 (whereof  6 operations were pure point group operations)
 out of a pool of 24 trial point group operations.


The constrained configuration has the point symmetry C_3v.


 Subroutine INISYM returns: Found  6 space group operations
 (whereof  6 operations are pure point group operations),
 and found     1 'primitive' translations


----------------------------------------------------------------------------------------

                                     Primitive cell                                     

  volume of cell :    1484.4589

  direct lattice vectors                    reciprocal lattice vectors
     8.791366577  0.000000000  0.000000000     0.113747958 -0.065672414  0.000000000
     4.395683289  7.613546790  0.000000000     0.000000000  0.131344829  0.000000000
     0.000000000  0.000000000 22.178121567     0.000000000  0.000000000  0.045089481

  length of vectors
     8.791366577  8.791366577 22.178121567     0.131344829  0.131344829  0.045089481

  position of ions in fractional coordinates (direct lattice)
     0.000000000  0.000000000  0.238171124
     0.333333313  0.000000000  0.238171124
     0.666666627  0.000000000  0.238171124
     0.000000000  0.333333343  0.238171124
     0.333333313  0.333333343  0.238171124
     0.666666687  0.333333343  0.238171124
     0.000000000  0.666666687  0.238171124
     0.333333313  0.666666687  0.238171124
     0.666666627  0.666666687  0.238171124
     0.111111104  0.111111112  0.346057051
     0.444444448  0.111111112  0.346057051
     0.777777791  0.111111112  0.346057051
     0.111111097  0.444444448  0.346057051
     0.444444418  0.444444448  0.346057051
     0.777777791  0.444444448  0.346057051
     0.111111104  0.777777791  0.346057051
     0.444444448  0.777777791  0.346057051
     0.777777791  0.777777791  0.346057051
     0.888874930  0.222250156  0.453660109
     0.222002280  0.222002295  0.452362180
     0.555995379  0.222002295  0.452362180
     0.888584292  0.555707884  0.454052872
     0.222002295  0.555995439  0.452362180
     0.555707884  0.555707884  0.454052872
     0.888874930  0.888874930  0.453660109
     0.222250126  0.888874930  0.453660109
     0.555707824  0.888584292  0.454052872
     0.000000000  0.000000000  0.561470753
     0.333455740  0.003519001  0.563052859
     0.663025199  0.003519001  0.563052859
     0.003519001  0.333455770  0.563052859
     0.663025259  0.333455770  0.563052859
     0.003519001  0.663025259  0.563052859
     0.333455740  0.663025259  0.563052859
     0.666666627  0.666666687  0.562140206
     0.333333313  0.333333343  0.554116375
     0.333333313  0.333333343  0.634251083

  ion indices of the primitive-cell ions
   primitive index   ion index
                 1           1
                 2           2
                 3           3
                 4           4
                 5           5
                 6           6
                 7           7
                 8           8
                 9           9
                10          10
                11          11
                12          12
                13          13
                14          14
                15          15
                16          16
                17          17
                18          18
                19          19
                20          20
                21          21
                22          22
                23          23
                24          24
                25          25
                26          26
                27          27
                28          28
                29          29
                30          30
                31          31
                32          32
                33          33
                34          34
                35          35
                36          36
                37          37

----------------------------------------------------------------------------------------

 
 
 KPOINTS: Automatic mesh                          

Automatic generation of k-mesh.
 Grid dimensions read from file:
 generate k-points for:    8    8    1

 Generating k-lattice:

  Cartesian coordinates                     Fractional coordinates (reciprocal lattice)
     0.014218495 -0.008209052  0.000000000     0.125000000  0.000000000  0.000000000
     0.000000000  0.016418104  0.000000000     0.000000000  0.125000000  0.000000000
     0.000000000  0.000000000  0.045089481     0.000000000  0.000000000  1.000000000

  Length of vectors
     0.016418104  0.016418104  0.045089481

  Shift w.r.t. Gamma in fractional coordinates (k-lattice)
     0.000000000  0.000000000  0.000000000

 TETIRR: Found     36 inequivalent tetrahedra from      384
 
 Subroutine IBZKPT returns following result:
 ===========================================
 
 Found     10 irreducible k-points:
 
 Following reciprocal coordinates:
            Coordinates               Weight
  0.000000  0.000000  0.000000      1.000000
  0.125000 -0.000000  0.000000      6.000000
  0.250000 -0.000000  0.000000      6.000000
  0.375000 -0.000000  0.000000      6.000000
  0.500000 -0.000000  0.000000      3.000000
  0.250000  0.125000  0.000000      6.000000
  0.375000  0.125000  0.000000     12.000000
  0.500000  0.125000  0.000000     12.000000
  0.500000  0.250000  0.000000      6.000000
 -0.375000  0.250000  0.000000      6.000000
 
 Following cartesian coordinates:
            Coordinates               Weight
  0.000000  0.000000  0.000000      1.000000
  0.014218 -0.008209  0.000000      6.000000
  0.028437 -0.016418  0.000000      6.000000
  0.042655 -0.024627  0.000000      6.000000
  0.056874 -0.032836  0.000000      3.000000
  0.028437 -0.000000  0.000000      6.000000
  0.042655 -0.008209  0.000000     12.000000
  0.056874 -0.016418  0.000000     12.000000
  0.056874 -0.000000  0.000000      6.000000
 -0.042655  0.057463  0.000000      6.000000
 


--------------------------------------------------------------------------------------------------------




 Dimension of arrays:
   k-points           NKPTS =     10   k-points in BZ     NKDIM =     10   number of bands    NBANDS=    252
   number of dos      NEDOS =    301   number of ions     NIONS =     37
   non local maximal  LDIM  =      6   non local SUM 2l+1 LMDIM =     18
   total plane-waves  NPLWV = 290304
   max r-space proj   IRMAX =   3185   max aug-charges    IRDMAX=   9814
   dimension x,y,z NGX =    48 NGY =   48 NGZ =  126
   dimension x,y,z NGXF=    96 NGYF=   96 NGZF=  252
   support grid    NGXF=    96 NGYF=   96 NGZF=  252
   ions per type =              35   1   1
   NGX,Y,Z   is equivalent  to a cutoff of   9.08,  9.08,  9.44 a.u.
   NGXF,Y,Z  is equivalent  to a cutoff of  18.15, 18.15, 18.89 a.u.

 SYSTEM =  unknown system                          
 POSCAR =  Ag-Nb-H                                 

 Startparameter for this run:
   NWRITE =      2    write-flag & timer
   PREC   = normal    normal or accurate (medium, high low for compatibility)
   ISTART =      0    job   : 0-new  1-cont  2-samecut
   ICHARG =     11    charge: 1-file 2-atom 10-const
   ISPIN  =      1    spin polarized calculation?
   LNONCOLLINEAR =      F non collinear calculations
   LSORBIT =      F    spin-orbit coupling
   INIWAV =      1    electr: 0-lowe 1-rand  2-diag
   LASPH  =      F    aspherical Exc in radial PAW
   METAGGA=      F    non-selfconsistent MetaGGA calc.

 Electronic Relaxation 1
   ENCUT  =  500.0 eV  36.75 Ry    6.06 a.u.  16.03 16.03 40.44*2*pi/ulx,y,z
   ENINI  =  500.0     initial cutoff
   ENAUG  =  455.7 eV  augmentation charge cutoff
   NELM   =    150;   NELMIN=  2; NELMDL= -5     # of ELM steps 
   EDIFF  = 0.1E-04   stopping-criterion for ELM
   LREAL  =      T    real-space projection
   NLSPLINE    = F    spline interpolate recip. space projectors
   LCOMPAT=      F    compatible to vasp.4.4
   GGA_COMPAT  = T    GGA compatible to vasp.4.4-vasp.4.6
   LMAXPAW     = -100 max onsite density
   LMAXMIX     =    2 max onsite mixed and CHGCAR
   VOSKOWN=      0    Vosko Wilk Nusair interpolation
   ROPT   =   -0.00050  -0.00050  -0.00050
 Ionic relaxation
   EDIFFG = -.1E-01   stopping-criterion for IOM
   NSW    =      0    number of steps for IOM
   NBLOCK =      1;   KBLOCK =      1    inner block; outer block 
   IBRION =     -1    ionic relax: 0-MD 1-quasi-New 2-CG
   NFREE  =      1    steps in history (QN), initial steepest desc. (CG)
   ISIF   =      2    stress and relaxation
   IWAVPR =     10    prediction:  0-non 1-charg 2-wave 3-comb
   ISYM   =      2    0-nonsym 1-usesym 2-fastsym
   LCORR  =      T    Harris-Foulkes like correction to forces

   POTIM  = 0.5000    time-step for ionic-motion
   TEIN   =    0.0    initial temperature
   TEBEG  =    0.0;   TEEND  =   0.0 temperature during run
   SMASS  =  -3.00    Nose mass-parameter (am)
   estimated Nose-frequenzy (Omega)   =  0.10E-29 period in steps = 0.13E+47 mass=  -0.177E-26a.u.
   SCALEE = 1.0000    scale energy and forces
   NPACO  =    256;   APACO  = 16.0  distance and # of slots for P.C.
   PSTRESS=    0.0 pullay stress

  Mass of Ions in am
   POMASS = 107.87 92.91  1.00
  Ionic Valenz
   ZVAL   =  11.00 13.00  1.00
  Atomic Wigner-Seitz radii
   RWIGS  =  -1.00 -1.00 -1.00
  virtual crystal weights 
   VCA    =   1.00  1.00  1.00
   NELECT =     399.0000    total number of electrons
   NUPDOWN=      -1.0000    fix difference up-down

 DOS related values:
   EMIN   =  10.00;   EMAX   =-10.00  energy-range for DOS
   EFERMI =   0.00
   ISMEAR =    -5;   SIGMA  =   0.10  broadening in eV -4-tet -1-fermi 0-gaus

 Electronic relaxation 2 (details)
   IALGO  =     68    algorithm
   LDIAG  =      T    sub-space diagonalisation (order eigenvalues)
   LSUBROT=      F    optimize rotation matrix (better conditioning)
   TURBO    =      0    0=normal 1=particle mesh
   IRESTART =      0    0=no restart 2=restart with 2 vectors
   NREBOOT  =      0    no. of reboots
   NMIN     =      0    reboot dimension
   EREF     =   0.00    reference energy to select bands
   IMIX   =      4    mixing-type and parameters
     AMIX     =   0.40;   BMIX     =  1.00
     AMIX_MAG =   1.60;   BMIX_MAG =  1.00
     AMIN     =   0.10
     WC   =   100.;   INIMIX=   1;  MIXPRE=   1;  MAXMIX= -45

 Intra band minimization:
   WEIMIN = 0.0000     energy-eigenvalue tresh-hold
   EBREAK =  0.99E-08  absolut break condition
   DEPER  =   0.30     relativ break condition  

   TIME   =   0.40     timestep for ELM

  volume/ion in A,a.u.               =      40.12       270.75
  Fermi-wavevector in a.u.,A,eV,Ry     =   1.056517  1.996527 15.187200  1.116228
  Thomas-Fermi vector in A             =   2.191755
 
 Write flags
   LWAVE        =      F    write WAVECAR
   LDOWNSAMPLE  =      F    k-point downsampling of WAVECAR
   LCHARG       =      F    write CHGCAR
   LVTOT        =      F    write LOCPOT, total local potential
   LVHAR        =      F    write LOCPOT, Hartree potential only
   LELF         =      F    write electronic localiz. function (ELF)
   LORBIT       =     10    0 simple, 1 ext, 2 COOP (PROOUT), +10 PAW based schemes


 Dipole corrections
   LMONO  =      F    monopole corrections only (constant potential shift)
   LDIPOL =      F    correct potential (dipole corrections)
   IDIPOL =      0    1-x, 2-y, 3-z, 4-all directions 
   EPSILON=  1.0000000 bulk dielectric constant

 Exchange correlation treatment:
   GGA     =    --    GGA type
   LEXCH   =     8    internal setting for exchange type
   VOSKOWN=      0    Vosko Wilk Nusair interpolation
   LHFCALC =     F    Hartree Fock is set to
   LHFONE  =     F    Hartree Fock one center treatment
   AEXX    =    0.0000 exact exchange contribution

 Linear response parameters
   LEPSILON=     F    determine dielectric tensor
   LRPA    =     F    only Hartree local field effects (RPA)
   LNABLA  =     F    use nabla operator in PAW spheres
   LVEL    =     F    velocity operator in full k-point grid
   LINTERFAST=   F  fast interpolation
   KINTER  =     0    interpolate to denser k-point grid
   CSHIFT  =0.1000    complex shift for real part using Kramers Kronig
   OMEGAMAX=  -1.0    maximum frequency
   DEG_THRESHOLD= 0.2000000E-02 threshold for treating states as degnerate
   RTIME   =   -0.100 relaxation time in fs
  (WPLASMAI=    0.000 imaginary part of plasma frequency in eV, 0.658/RTIME)
   DFIELD  = 0.0000000 0.0000000 0.0000000 field for delta impulse in time
 
 Orbital magnetization related:
   ORBITALMAG=     F  switch on orbital magnetization
   LCHIMAG   =     F  perturbation theory with respect to B field
   DQ        =  0.001000  dq finite difference perturbation B field
   LLRAUG    =     F  two centre corrections for induced B field



--------------------------------------------------------------------------------------------------------


 Static calculation
 charge density and potential remain constant during run
 non-spin polarized calculation
 RMM-DIIS sequential band-by-band and
  variant of blocked Davidson during initial phase
 perform sub-space diagonalisation
    before iterative eigenvector-optimisation
 no mixing
 using additional bands           52
 real space projection scheme for non local part
 use partial core corrections
 calculate Harris-corrections to forces 
   (improved forces if not selfconsistent)
 use gradient corrections 
 WARNING: stress and forces are not correct
  (second derivative of E(xc) not defined)
 use of overlap-Matrix (Vanderbilt PP)
 Fermi weights with tetrahedron method with Bloechl corrections


--------------------------------------------------------------------------------------------------------


  energy-cutoff  :      500.00
  volume of cell :     1484.46
      direct lattice vectors                 reciprocal lattice vectors
     8.791366577  0.000000000  0.000000000     0.113747958 -0.065672414  0.000000000
     4.395683289  7.613546790  0.000000000     0.000000000  0.131344829  0.000000000
     0.000000000  0.000000000 22.178121567     0.000000000  0.000000000  0.045089481

  length of vectors
     8.791366577  8.791366577 22.178121567     0.131344829  0.131344829  0.045089481


 
 k-points in units of 2pi/SCALE and weight: Automatic mesh                          
   0.00000000  0.00000000  0.00000000       0.016
   0.01421849 -0.00820905  0.00000000       0.094
   0.02843699 -0.01641810  0.00000000       0.094
   0.04265548 -0.02462716  0.00000000       0.094
   0.05687398 -0.03283621  0.00000000       0.047
   0.02843699 -0.00000000  0.00000000       0.094
   0.04265548 -0.00820905  0.00000000       0.188
   0.05687398 -0.01641810  0.00000000       0.188
   0.05687398 -0.00000000  0.00000000       0.094
  -0.04265548  0.05746336  0.00000000       0.094
 
 k-points in reciprocal lattice and weights: Automatic mesh                          
   0.00000000  0.00000000  0.00000000       0.016
   0.12500000 -0.00000000  0.00000000       0.094
   0.25000000 -0.00000000  0.00000000       0.094
   0.37500000 -0.00000000  0.00000000       0.094
   0.50000000 -0.00000000  0.00000000       0.047
   0.25000000  0.12500000  0.00000000       0.094
   0.37500000  0.12500000  0.00000000       0.188
   0.50000000  0.12500000  0.00000000       0.188
   0.50000000  0.25000000  0.00000000       0.094
  -0.37500000  0.25000000  0.00000000       0.094
 
 position of ions in fractional coordinates (direct lattice) 
   0.00000000  0.00000000  0.23817112
   0.33333331  0.00000000  0.23817112
   0.66666663  0.00000000  0.23817112
   0.00000000  0.33333334  0.23817112
   0.33333331  0.33333334  0.23817112
   0.66666669  0.33333334  0.23817112
   0.00000000  0.66666669  0.23817112
   0.33333331  0.66666669  0.23817112
   0.66666663  0.66666669  0.23817112
   0.11111110  0.11111111  0.34605705
   0.44444445  0.11111111  0.34605705
   0.77777779  0.11111111  0.34605705
   0.11111110  0.44444445  0.34605705
   0.44444442  0.44444445  0.34605705
   0.77777779  0.44444445  0.34605705
   0.11111110  0.77777779  0.34605705
   0.44444445  0.77777779  0.34605705
   0.77777779  0.77777779  0.34605705
   0.88887493  0.22225016  0.45366011
   0.22200228  0.22200230  0.45236218
   0.55599538  0.22200230  0.45236218
   0.88858429  0.55570788  0.45405287
   0.22200230  0.55599544  0.45236218
   0.55570788  0.55570788  0.45405287
   0.88887493  0.88887493  0.45366011
   0.22225013  0.88887493  0.45366011
   0.55570782  0.88858429  0.45405287
   0.00000000  0.00000000  0.56147075
   0.33345574  0.00351900  0.56305286
   0.66302520  0.00351900  0.56305286
   0.00351900  0.33345577  0.56305286
   0.66302526  0.33345577  0.56305286
   0.00351900  0.66302526  0.56305286
   0.33345574  0.66302526  0.56305286
   0.66666663  0.66666669  0.56214021
   0.33333331  0.33333334  0.55411638
   0.33333331  0.33333334  0.63425108
 
 position of ions in cartesian coordinates  (Angst):
   0.00000000  0.00000000  5.28218814
   2.93045535  0.00000000  5.28218814
   5.86091070  0.00000000  5.28218814
   1.46522781  2.53784900  5.28218814
   4.39568315  2.53784900  5.28218814
   7.32613904  2.53784900  5.28218814
   2.93045562  5.07569801  5.28218814
   5.86091096  5.07569801  5.28218814
   8.79136632  5.07569801  5.28218814
   1.46522770  0.84594965  7.67489535
   4.39568332  0.84594965  7.67489535
   7.32613893  0.84594965  7.67489535
   2.93045542  3.38379860  7.67489535
   5.86091083  3.38379860  7.67489535
   8.79136671  3.38379860  7.67489535
   4.39568328  5.92164760  7.67489535
   7.32613890  5.92164760  7.67489535
  10.25659451  5.92164760  7.67489535
   8.79136665  1.69211196 10.06132904
   2.92755521  1.69022486 10.03254343
   5.86381097  1.69022486 10.03254343
  10.25458610  4.23090798 10.07003980
   4.39568342  4.23309729 10.03254343
   7.32814758  4.23090798 10.07003980
  11.72163802  6.76749087 10.06132904
   5.86109501  6.76749087 10.06132904
   8.79136631  6.76527808 10.07003980
   0.00000000  0.00000000 12.45236662
   2.94700006  0.02679208 12.48745475
   5.84436599  0.02679208 12.48745475
   1.49670278  2.53878110 12.48745475
   7.29466406  2.53878110 12.48745475
   2.94538588  5.04797383 12.48745475
   5.84598070  5.04797383 12.48745475
   8.79136632  5.07569801 12.46721382
   4.39568315  2.53784900 12.28926033
   4.39568315  2.53784900 14.06649762
 


--------------------------------------------------------------------------------------------------------


 k-point   1 :   0.0000 0.0000 0.0000  plane waves:   37683
 k-point   2 :   0.1250-0.0000 0.0000  plane waves:   37658
 k-point   3 :   0.2500-0.0000 0.0000  plane waves:   37682
 k-point   4 :   0.3750-0.0000 0.0000  plane waves:   37686
 k-point   5 :   0.5000-0.0000 0.0000  plane waves:   37668
 k-point   6 :   0.2500 0.1250 0.0000  plane waves:   37666
 k-point   7 :   0.3750 0.1250 0.0000  plane waves:   37708
 k-point   8 :   0.5000 0.1250 0.0000  plane waves:   37726
 k-point   9 :   0.5000 0.2500 0.0000  plane waves:   37706
 k-point  10 :  -0.3750 0.2500 0.0000  plane waves:   37686

 maximum and minimum number of plane-waves per node :     37726    37658

 maximum number of plane-waves:     37726
 maximum index in each direction: 
   IXMAX=   16   IYMAX=   16   IZMAX=   40
   IXMIN=  -16   IYMIN=  -16   IZMIN=  -40


 serial   3D FFT for wavefunctions
 parallel 3D FFT for charge:
    minimum data exchange during FFTs selected (reduces bandwidth)


 total amount of memory used by VASP MPI-rank0   123503. kBytes
=======================================================================

   base      :      30000. kBytes
   nonlr-proj:      15400. kBytes
   fftplans  :       4330. kBytes
   grid      :      17879. kBytes
   one-center:        575. kBytes
   wavefun   :      55319. kBytes
 
     INWAV:  cpu time    0.0000: real time    0.0000
 initial charge density was supplied:
 number of electron     398.9999907 magnetization 
 keeping initial charge density in first step


--------------------------------------------------------------------------------------------------------


 Maximum index for non-local projection operator         3053
 Maximum index for augmentation-charges          706 (set IRDMAX)


--------------------------------------------------------------------------------------------------------


 First call to EWALD:  gamma=   0.155
 Maximum number of real-space cells 4x 4x 2
 Maximum number of reciprocal cells 2x 2x 5

    FEWALD:  cpu time    0.0013: real time    0.0013


--------------------------------------- Iteration      1(   1)  ---------------------------------------


    POTLOK:  cpu time    0.0434: real time    0.0437
    SETDIJ:  cpu time    0.0048: real time    0.0049
     EDDAV:  cpu time    7.1833: real time    7.1851
 BZINTS: Fermi energy:    9.563217;  399.000000 electrons
         Band energy: 0.102983E+04;  BLOECHL correction:   -0.016672
       DOS:  cpu time    0.0105: real time    0.0106
    --------------------------------------------
      LOOP:  cpu time    7.2420: real time    7.2443

 eigenvalue-minimisations  :  5040
 total energy-change (2. order) : 0.2505823E+04  (-0.1860043E+05)
 number of electron     398.9999907 magnetization 
 augmentation part      398.9999907 magnetization 

 Free energy of the ion-electron system (eV)
  ---------------------------------------------------
  alpha Z        PSCENC =       758.90819899
  Ewald energy   TEWEN  =     98794.29169051
  -Hartree energ DENC   =   -137173.41956123
  -exchange      EXHF   =         0.00000000
  -V(xc)+E(xc)   XCENC  =      -331.44000677
  PAW double counting   =     39622.83912273   -38067.03855879
  entropy T*S    EENTRO =         0.00000000
  eigenvalues    EBANDS =      1029.83025734
  atomic energy  EATOM  =     37871.85170276
  Solvation  Ediel_sol  =         0.00000000
  ---------------------------------------------------
  free energy    TOTEN  =      2505.82284554 eV

  energy without entropy =     2505.82284554  energy(sigma->0) =     2505.82284554


--------------------------------------------------------------------------------------------------------




--------------------------------------- Iteration      1(   2)  ---------------------------------------


     EDDAV:  cpu time    7.5226: real time    7.5259
 BZINTS: Fermi energy:    1.492736;  399.000000 electrons
         Band energy:-0.148505E+04;  BLOECHL correction:   -0.035492
       DOS:  cpu time    0.0096: real time    0.0096
    --------------------------------------------
      LOOP:  cpu time    7.5322: real time    7.5355

 eigenvalue-minimisations  :  5320
 total energy-change (2. order) :-0.2514881E+04  (-0.2405014E+04)
 number of electron     398.9999907 magnetization 
 augmentation part      398.9999907 magnetization 

 Free energy of the ion-electron system (eV)
  ---------------------------------------------------
  alpha Z        PSCENC =       758.90819899
  Ewald energy   TEWEN  =     98794.29169051
  -Hartree energ DENC   =   -137173.41956123
  -exchange      EXHF   =         0.00000000
  -V(xc)+E(xc)   XCENC  =      -331.44000677
  PAW double counting   =     39622.83912273   -38067.03855879
  entropy T*S    EENTRO =         0.00000000
  eigenvalues    EBANDS =     -1485.05051545
  atomic energy  EATOM  =     37871.85170276
  Solvation  Ediel_sol  =         0.00000000
  ---------------------------------------------------
  free energy    TOTEN  =        -9.05792725 eV

  energy without entropy =       -9.05792725  energy(sigma->0) =       -9.05792725


--------------------------------------------------------------------------------------------------------




--------------------------------------- Iteration      1(   3)  ---------------------------------------


     EDDAV:  cpu time    8.8995: real time    8.9000
 BZINTS: Fermi energy:    0.867136;  399.000000 electrons
         Band energy:-0.157315E+04;  BLOECHL correction:   -0.020019
       DOS:  cpu time    0.0101: real time    0.0101
    --------------------------------------------
      LOOP:  cpu time    8.9096: real time    8.9101

 eigenvalue-minimisations  :  6524
 total energy-change (2. order) :-0.8810430E+02  (-0.8599150E+02)
 number of electron     398.9999907 magnetization 
 augmentation part      398.9999907 magnetization 

 Free energy of the ion-electron system (eV)
  ---------------------------------------------------
  alpha Z        PSCENC =       758.90819899
  Ewald energy   TEWEN  =     98794.29169051
  -Hartree energ DENC   =   -137173.41956123
  -exchange      EXHF   =         0.00000000
  -V(xc)+E(xc)   XCENC  =      -331.44000677
  PAW double counting   =     39622.83912273   -38067.03855879
  entropy T*S    EENTRO =         0.00000000
  eigenvalues    EBANDS =     -1573.15481536
  atomic energy  EATOM  =     37871.85170276
  Solvation  Ediel_sol  =         0.00000000
  ---------------------------------------------------
  free energy    TOTEN  =       -97.16222717 eV

  energy without entropy =      -97.16222717  energy(sigma->0) =      -97.16222717


--------------------------------------------------------------------------------------------------------




--------------------------------------- Iteration      1(   4)  ---------------------------------------


     EDDAV:  cpu time   10.6119: real time   10.6123
 BZINTS: Fermi energy:    0.815923;  399.000000 electrons
         Band energy:-0.157601E+04;  BLOECHL correction:   -0.019605
       DOS:  cpu time    0.0101: real time    0.0101
    --------------------------------------------
      LOOP:  cpu time   10.6221: real time   10.6224

 eigenvalue-minimisations  :  8064
 total energy-change (2. order) :-0.2856831E+01  (-0.2824562E+01)
 number of electron     398.9999907 magnetization 
 augmentation part      398.9999907 magnetization 

 Free energy of the ion-electron system (eV)
  ---------------------------------------------------
  alpha Z        PSCENC =       758.90819899
  Ewald energy   TEWEN  =     98794.29169051
  -Hartree energ DENC   =   -137173.41956123
  -exchange      EXHF   =         0.00000000
  -V(xc)+E(xc)   XCENC  =      -331.44000677
  PAW double counting   =     39622.83912273   -38067.03855879
  entropy T*S    EENTRO =         0.00000000
  eigenvalues    EBANDS =     -1576.01164589
  atomic energy  EATOM  =     37871.85170276
  Solvation  Ediel_sol  =         0.00000000
  ---------------------------------------------------
  free energy    TOTEN  =      -100.01905769 eV

  energy without entropy =     -100.01905769  energy(sigma->0) =     -100.01905769


--------------------------------------------------------------------------------------------------------




--------------------------------------- Iteration      1(   5)  ---------------------------------------


     EDDAV:  cpu time    8.0383: real time    8.0386
 BZINTS: Fermi energy:    0.812696;  399.000000 electrons
         Band energy:-0.157606E+04;  BLOECHL correction:   -0.020135
       DOS:  cpu time    0.0097: real time    0.0097
    --------------------------------------------
      LOOP:  cpu time    8.0480: real time    8.0484

 eigenvalue-minimisations  :  5796
 total energy-change (2. order) :-0.4751803E-01  (-0.4701965E-01)
 number of electron     398.9999907 magnetization 
 augmentation part      398.9999907 magnetization 

 Free energy of the ion-electron system (eV)
  ---------------------------------------------------
  alpha Z        PSCENC =       758.90819899
  Ewald energy   TEWEN  =     98794.29169051
  -Hartree energ DENC   =   -137173.41956123
  -exchange      EXHF   =         0.00000000
  -V(xc)+E(xc)   XCENC  =      -331.44000677
  PAW double counting   =     39622.83912273   -38067.03855879
  entropy T*S    EENTRO =         0.00000000
  eigenvalues    EBANDS =     -1576.05916392
  atomic energy  EATOM  =     37871.85170276
  Solvation  Ediel_sol  =         0.00000000
  ---------------------------------------------------
  free energy    TOTEN  =      -100.06657573 eV

  energy without entropy =     -100.06657573  energy(sigma->0) =     -100.06657573


--------------------------------------------------------------------------------------------------------




--------------------------------------- Iteration      1(   6)  ---------------------------------------


    EDDIAG:  cpu time    1.4454: real time    1.4457
  RMM-DIIS:  cpu time    5.5421: real time    5.5423
    ORTHCH:  cpu time    0.2614: real time    0.2614
 BZINTS: Fermi energy:    0.812644;  399.000000 electrons
         Band energy:-0.157606E+04;  BLOECHL correction:   -0.020145
       DOS:  cpu time    0.0103: real time    0.0103
    --------------------------------------------
      LOOP:  cpu time    7.2592: real time    7.2597

 eigenvalue-minimisations  :  6935
 total energy-change (2. order) :-0.1073768E-02  (-0.1067214E-02)
 number of electron     398.9999907 magnetization 
 augmentation part      398.9999907 magnetization 

 Free energy of the ion-electron system (eV)
  ---------------------------------------------------
  alpha Z        PSCENC =       758.90819899
  Ewald energy   TEWEN  =     98794.29169051
  -Hartree energ DENC   =   -137173.41956123
  -exchange      EXHF   =         0.00000000
  -V(xc)+E(xc)   XCENC  =      -331.44000677
  PAW double counting   =     39622.83912273   -38067.03855879
  entropy T*S    EENTRO =         0.00000000
  eigenvalues    EBANDS =     -1576.06023769
  atomic energy  EATOM  =     37871.85170276
  Solvation  Ediel_sol  =         0.00000000
  ---------------------------------------------------
  free energy    TOTEN  =      -100.06764950 eV

  energy without entropy =     -100.06764950  energy(sigma->0) =     -100.06764950


--------------------------------------------------------------------------------------------------------




--------------------------------------- Iteration      1(   7)  ---------------------------------------


    EDDIAG:  cpu time    1.4482: real time    1.4483
  RMM-DIIS:  cpu time    7.3057: real time    7.3059
    ORTHCH:  cpu time    0.2609: real time    0.2610
 BZINTS: Fermi energy:    0.812622;  399.000000 electrons
         Band energy:-0.157606E+04;  BLOECHL correction:   -0.020150
       DOS:  cpu time    0.0103: real time    0.0103
    --------------------------------------------
      LOOP:  cpu time    9.0251: real time    9.0255

 eigenvalue-minimisations  :  9090
 total energy-change (2. order) :-0.5609890E-03  (-0.5470862E-03)
 number of electron     398.9999907 magnetization 
 augmentation part      398.9999907 magnetization 

 Free energy of the ion-electron system (eV)
  ---------------------------------------------------
  alpha Z        PSCENC =       758.90819899
  Ewald energy   TEWEN  =     98794.29169051
  -Hartree energ DENC   =   -137173.41956123
  -exchange      EXHF   =         0.00000000
  -V(xc)+E(xc)   XCENC  =      -331.44000677
  PAW double counting   =     39622.83912273   -38067.03855879
  entropy T*S    EENTRO =         0.00000000
  eigenvalues    EBANDS =     -1576.06079868
  atomic energy  EATOM  =     37871.85170276
  Solvation  Ediel_sol  =         0.00000000
  ---------------------------------------------------
  free energy    TOTEN  =      -100.06821048 eV

  energy without entropy =     -100.06821048  energy(sigma->0) =     -100.06821048


--------------------------------------------------------------------------------------------------------




--------------------------------------- Iteration      1(   8)  ---------------------------------------


    EDDIAG:  cpu time    1.4517: real time    1.4520
  RMM-DIIS:  cpu time    6.6599: real time    6.6602
    ORTHCH:  cpu time    0.2612: real time    0.2612
 BZINTS: Fermi energy:    0.812617;  399.000000 electrons
         Band energy:-0.157606E+04;  BLOECHL correction:   -0.020151
       DOS:  cpu time    0.0093: real time    0.0093
    --------------------------------------------
      LOOP:  cpu time    8.3822: real time    8.3827

 eigenvalue-minimisations  :  8155
 total energy-change (2. order) :-0.1125505E-03  (-0.1062742E-03)
 number of electron     398.9999907 magnetization 
 augmentation part      398.9999907 magnetization 

 Free energy of the ion-electron system (eV)
  ---------------------------------------------------
  alpha Z        PSCENC =       758.90819899
  Ewald energy   TEWEN  =     98794.29169051
  -Hartree energ DENC   =   -137173.41956123
  -exchange      EXHF   =         0.00000000
  -V(xc)+E(xc)   XCENC  =      -331.44000677
  PAW double counting   =     39622.83912273   -38067.03855879
  entropy T*S    EENTRO =         0.00000000
  eigenvalues    EBANDS =     -1576.06091123
  atomic energy  EATOM  =     37871.85170276
  Solvation  Ediel_sol  =         0.00000000
  ---------------------------------------------------
  free energy    TOTEN  =      -100.06832303 eV

  energy without entropy =     -100.06832303  energy(sigma->0) =     -100.06832303


--------------------------------------------------------------------------------------------------------




--------------------------------------- Iteration      1(   9)  ---------------------------------------


    EDDIAG:  cpu time    1.4522: real time    1.4523
  RMM-DIIS:  cpu time    5.2234: real time    5.2236
    ORTHCH:  cpu time    0.2612: real time    0.2612
 BZINTS: Fermi energy:    0.812614;  399.000000 electrons
         Band energy:-0.157606E+04;  BLOECHL correction:   -0.020152
       DOS:  cpu time    0.0097: real time    0.0097
    --------------------------------------------
      LOOP:  cpu time    6.9465: real time    6.9468

 eigenvalue-minimisations  :  6154
 total energy-change (2. order) :-0.3702121E-04  (-0.3604301E-04)
 number of electron     398.9999907 magnetization 
 augmentation part      398.9999907 magnetization 

 Free energy of the ion-electron system (eV)
  ---------------------------------------------------
  alpha Z        PSCENC =       758.90819899
  Ewald energy   TEWEN  =     98794.29169051
  -Hartree energ DENC   =   -137173.41956123
  -exchange      EXHF   =         0.00000000
  -V(xc)+E(xc)   XCENC  =      -331.44000677
  PAW double counting   =     39622.83912273   -38067.03855879
  entropy T*S    EENTRO =         0.00000000
  eigenvalues    EBANDS =     -1576.06094825
  atomic energy  EATOM  =     37871.85170276
  Solvation  Ediel_sol  =         0.00000000
  ---------------------------------------------------
  free energy    TOTEN  =      -100.06836006 eV

  energy without entropy =     -100.06836006  energy(sigma->0) =     -100.06836006


--------------------------------------------------------------------------------------------------------




--------------------------------------- Iteration      1(  10)  ---------------------------------------


    EDDIAG:  cpu time    1.4511: real time    1.4514
WARNING in EDDRMM: call to ZHEGV failed, returncode =   8  4      3
  RMM-DIIS:  cpu time    4.5020: real time    4.5021
    ORTHCH:  cpu time    0.2611: real time    0.2611
 BZINTS: Fermi energy:    0.812613;  399.000000 electrons
         Band energy:-0.157606E+04;  BLOECHL correction:   -0.020152
       DOS:  cpu time    0.0101: real time    0.0101
    --------------------------------------------
      LOOP:  cpu time    6.2243: real time    6.2248

 eigenvalue-minimisations  :  5250
 total energy-change (2. order) :-0.1378823E-04  (-0.1415165E-04)
 number of electron     398.9999907 magnetization 
 augmentation part      398.9999907 magnetization 

 Free energy of the ion-electron system (eV)
  ---------------------------------------------------
  alpha Z        PSCENC =       758.90819899
  Ewald energy   TEWEN  =     98794.29169051
  -Hartree energ DENC   =   -137173.41956123
  -exchange      EXHF   =         0.00000000
  -V(xc)+E(xc)   XCENC  =      -331.44000677
  PAW double counting   =     39622.83912273   -38067.03855879
  entropy T*S    EENTRO =         0.00000000
  eigenvalues    EBANDS =     -1576.06096204
  atomic energy  EATOM  =     37871.85170276
  Solvation  Ediel_sol  =         0.00000000
  ---------------------------------------------------
  free energy    TOTEN  =      -100.06837384 eV

  energy without entropy =     -100.06837384  energy(sigma->0) =     -100.06837384


--------------------------------------------------------------------------------------------------------




--------------------------------------- Iteration      1(  11)  ---------------------------------------


    EDDIAG:  cpu time    1.4616: real time    1.4617
  RMM-DIIS:  cpu time    4.2950: real time    4.2951
    ORTHCH:  cpu time    0.2612: real time    0.2612
 BZINTS: Fermi energy:    0.812613;  399.000000 electrons
         Band energy:-0.157606E+04;  BLOECHL correction:   -0.020152
       DOS:  cpu time    0.0099: real time    0.0099
    --------------------------------------------
      LOOP:  cpu time    6.0276: real time    6.0279

 eigenvalue-minimisations  :  4865
 total energy-change (2. order) :-0.5000766E-05  (-0.5938722E-05)
 number of electron     398.9999907 magnetization 
 augmentation part      398.9999907 magnetization 

 Free energy of the ion-electron system (eV)
  ---------------------------------------------------
  alpha Z        PSCENC =       758.90819899
  Ewald energy   TEWEN  =     98794.29169051
  -Hartree energ DENC   =   -137173.41956123
  -exchange      EXHF   =         0.00000000
  -V(xc)+E(xc)   XCENC  =      -331.44000677
  PAW double counting   =     39622.83912273   -38067.03855879
  entropy T*S    EENTRO =         0.00000000
  eigenvalues    EBANDS =     -1576.06096704
  atomic energy  EATOM  =     37871.85170276
  Solvation  Ediel_sol  =         0.00000000
  ---------------------------------------------------
  free energy    TOTEN  =      -100.06837884 eV

  energy without entropy =     -100.06837884  energy(sigma->0) =     -100.06837884


--------------------------------------------------------------------------------------------------------




 average (electrostatic) potential at core
  the test charge radii are     1.1249  1.0703  0.5201
  (the norm of the test charge is              1.0000)
       1 -78.0815       2 -78.0842       3 -78.0841       4 -78.0842       5 -78.0754
       6 -78.0839       7 -78.0841       8 -78.0839       9 -78.0820      10 -78.3245
      11 -78.3129      12 -78.3242      13 -78.3129      14 -78.3125      15 -78.2976
      16 -78.3242      17 -78.2976      18 -78.2977      19 -78.3028      20 -78.4970
      21 -78.4966      22 -78.2726      23 -78.4966      24 -78.2722      25 -78.3028
      26 -78.3028      27 -78.2726      28 -78.0955      29 -78.1619      30 -78.1618
      31 -78.1619      32 -78.1615      33 -78.1618      34 -78.1615      35 -78.0725
      36 -88.4746      37 -34.3605
 
 
 
 E-fermi :   0.8126     XC(G=0):  -5.9459     alpha+bet : -5.6642

 Fermi energy:         0.8126125043

 k-point     1 :       0.0000    0.0000    0.0000
  band No.  band energies     occupation 
      1     -54.5936      2.00000
      2     -30.6992      2.00000
      3     -30.6992      2.00000
      4     -30.5113      2.00000
      5      -6.3205      2.00000
      6      -5.4605      2.00000
      7      -5.1843      2.00000
      8      -5.0884      2.00000
      9      -5.0558      2.00000
     10      -5.0557      2.00000
     11      -5.0457      2.00000
     12      -5.0457      2.00000
     13      -5.0407      2.00000
     14      -5.0266      2.00000
     15      -5.0083      2.00000
     16      -4.9986      2.00000
     17      -4.9986      2.00000
     18      -4.9892      2.00000
     19      -4.9885      2.00000
     20      -4.9885      2.00000
     21      -4.8548      2.00000
     22      -4.8501      2.00000
     23      -4.8501      2.00000
     24      -4.8250      2.00000
     25      -4.8195      2.00000
     26      -4.8195      2.00000
     27      -4.6793      2.00000
     28      -4.6554      2.00000
     29      -4.6448      2.00000
     30      -4.6447      2.00000
     31      -4.6366      2.00000
     32      -4.6366      2.00000
     33      -4.6206      2.00000
     34      -4.6070      2.00000
     35      -4.5859      2.00000
     36      -4.5859      2.00000
     37      -4.5778      2.00000
     38      -4.5777      2.00000
     39      -4.5349      2.00000
     40      -4.5053      2.00000
     41      -4.4972      2.00000
     42      -4.4972      2.00000
     43      -4.4493      2.00000
     44      -4.4493      2.00000
     45      -4.2660      2.00000
     46      -4.2616      2.00000
     47      -4.2615      2.00000
     48      -4.2412      2.00000
     49      -4.2411      2.00000
     50      -4.2354      2.00000
     51      -4.2348      2.00000
     52      -4.2347      2.00000
     53      -4.2202      2.00000
     54      -4.2201      2.00000
     55      -4.0912      2.00000
     56      -4.0853      2.00000
     57      -4.0733      2.00000
     58      -4.0480      2.00000
     59      -3.9143      2.00000
     60      -3.8900      2.00000
     61      -3.8900      2.00000
     62      -3.8708      2.00000
     63      -3.8686      2.00000
     64      -3.8686      2.00000
     65      -3.8614      2.00000
     66      -3.8371      2.00000
     67      -3.8371      2.00000
     68      -3.8003      2.00000
     69      -3.8003      2.00000
     70      -3.7094      2.00000
     71      -3.7093      2.00000
     72      -3.7073      2.00000
     73      -3.7002      2.00000
     74      -3.7002      2.00000
     75      -3.6970      2.00000
     76      -3.6875      2.00000
     77      -3.6875      2.00000
     78      -3.6728      2.00000
     79      -3.6672      2.00000
     80      -3.6672      2.00000
     81      -3.6494      2.00000
     82      -3.6340      2.00000
     83      -3.6339      2.00000
     84      -3.5926      2.00000
     85      -3.5925      2.00000
     86      -3.5775      2.00000
     87      -3.5664      2.00000
     88      -3.5664      2.00000
     89      -3.5228      2.00000
     90      -3.5228      2.00000
     91      -3.4854      2.00000
     92      -3.4699      2.00000
     93      -3.4699      2.00000
     94      -3.4577      2.00000
     95      -3.4577      2.00000
     96      -3.4000      2.00000
     97      -3.4000      2.00000
     98      -3.3969      2.00000
     99      -3.3872      2.00000
    100      -3.3872      2.00000
    101      -3.3626      2.00000
    102      -3.3625      2.00000
    103      -3.1796      2.00000
    104      -3.1796      2.00000
    105      -3.1685      2.00000
    106      -3.1493      2.00000
    107      -3.1493      2.00000
    108      -3.1328      2.00000
    109      -3.1327      2.00000
    110      -3.1141      2.00000
    111      -3.1114      2.00000
    112      -3.0756      2.00000
    113      -3.0756      2.00000
    114      -3.0413      2.00000
    115      -3.0334      2.00000
    116      -3.0139      2.00000
    117      -3.0075      2.00000
    118      -3.0075      2.00000
    119      -2.9097      2.00000
    120      -2.9097      2.00000
    121      -2.8689      2.00000
    122      -2.8689      2.00000
    123      -2.8568      2.00000
    124      -2.8568      2.00000
    125      -2.8086      2.00000
    126      -2.8083      2.00000
    127      -2.8083      2.00000
    128      -2.7807      2.00000
    129      -2.7803      2.00000
    130      -2.7803      2.00000
    131      -2.7606      2.00000
    132      -2.7606      2.00000
    133      -2.7535      2.00000
    134      -2.7534      2.00000
    135      -2.7533      2.00000
    136      -2.7522      2.00000
    137      -2.6677      2.00000
    138      -2.6677      2.00000
    139      -2.5999      2.00000
    140      -2.5999      2.00000
    141      -2.5839      2.00000
    142      -2.5775      2.00000
    143      -2.5653      2.00000
    144      -2.5653      2.00000
    145      -2.5576      2.00000
    146      -2.5482      2.00000
    147      -2.5482      2.00000
    148      -2.5242      2.00000
    149      -2.5202      2.00000
    150      -2.5201      2.00000
    151      -2.5129      2.00000
    152      -2.4890      2.00000
    153      -2.4881      2.00000
    154      -2.4717      2.00000
    155      -2.4563      2.00000
    156      -2.4563      2.00000
    157      -2.4511      2.00000
    158      -2.4511      2.00000
    159      -2.4305      2.00000
    160      -2.4133      2.00000
    161      -2.4133      2.00000
    162      -2.4037      2.00000
    163      -2.3809      2.00000
    164      -2.3729      2.00000
    165      -2.3729      2.00000
    166      -2.3567      2.00000
    167      -2.3476      2.00000
    168      -2.3476      2.00000
    169      -2.3453      2.00000
    170      -2.3265      2.00000
    171      -2.3265      2.00000
    172      -2.3251      2.00000
    173      -2.2924      2.00000
    174      -2.2923      2.00000
    175      -2.2660      2.00000
    176      -2.2660      2.00000
    177      -2.1949      2.00000
    178      -2.1948      2.00000
    179      -2.1927      2.00000
    180      -2.1880      2.00000
    181      -2.1704      2.00000
    182      -2.1703      2.00000
    183      -2.1630      2.00000
    184      -2.0671      2.00000
    185      -2.0670      2.00000
    186      -2.0575      2.00000
    187      -2.0570      2.00000
    188      -2.0569      2.00000
    189      -1.6616      2.00000
    190      -1.3218      2.00000
    191      -1.3218      2.00000
    192      -1.2790      2.00000
    193      -1.2736      2.00000
    194      -1.2735      2.00000
    195      -0.8326      2.00000
    196      -0.0307      2.00000
    197       0.2674      2.00000
    198       0.3238      2.00000
    199       0.3239      2.00000
    200       0.3708      2.00000
    201       0.3709      2.00000
    202       0.4579      2.68389
    203       1.0628      0.00000
    204       1.0629      0.00000
    205       1.2234      0.00000
    206       1.2307      0.00000
    207       1.2307      0.00000
    208       2.2353      0.00000
    209       2.6662      0.00000
    210       2.6838      0.00000
    211       2.6838      0.00000
    212       3.1192      0.00000
    213       3.1192      0.00000
    214       4.0257      0.00000
    215       4.1585      0.00000
    216       4.2608      0.00000
    217       4.2608      0.00000
    218       4.3287      0.00000
    219       4.3287      0.00000
    220       4.7737      0.00000
    221       5.0465      0.00000
    222       5.0551      0.00000
    223       5.0551      0.00000
    224       5.0614      0.00000
    225       5.0646      0.00000
    226       5.0646      0.00000
    227       5.2409      0.00000
    228       5.2409      0.00000
    229       5.2434      0.00000
    230       5.2789      0.00000
    231       5.4257      0.00000
    232       5.4257      0.00000
    233       5.5735      0.00000
    234       6.4267      0.00000
    235       6.5958      0.00000
    236       6.6703      0.00000
    237       6.6703      0.00000
    238       6.7214      0.00000
    239       6.7984      0.00000
    240       6.8509      0.00000
    241       6.8514      0.00000
    242       7.0472      0.00000
    243       7.0483      0.00000
    244       7.0863      0.00000
    245       7.0870      0.00000
    246       7.0917      0.00000
    247       7.1308      0.00000
    248       7.3099      0.00000
    249       7.4132      0.00000
    250       7.4221      0.00000
    251       7.4460      0.00000
    252       7.4977      0.00000

 k-point     2 :       0.1250   -0.0000    0.0000
  band No.  band energies     occupation 
      1     -54.5936      2.00000
      2     -30.6992      2.00000
      3     -30.6992      2.00000
      4     -30.5113      2.00000
      5      -6.2744      2.00000
      6      -5.4198      2.00000
      7      -5.1526      2.00000
      8      -5.1134      2.00000
      9      -5.0905      2.00000
     10      -5.0528      2.00000
     11      -5.0514      2.00000
     12      -5.0415      2.00000
     13      -5.0302      2.00000
     14      -5.0255      2.00000
     15      -4.9983      2.00000
     16      -4.9925      2.00000
     17      -4.9807      2.00000
     18      -4.9431      2.00000
     19      -4.9306      2.00000
     20      -4.9289      2.00000
     21      -4.9135      2.00000
     22      -4.8837      2.00000
     23      -4.8835      2.00000
     24      -4.7798      2.00000
     25      -4.7724      2.00000
     26      -4.7283      2.00000
     27      -4.7225      2.00000
     28      -4.7007      2.00000
     29      -4.6976      2.00000
     30      -4.6720      2.00000
     31      -4.6567      2.00000
     32      -4.6071      2.00000
     33      -4.6038      2.00000
     34      -4.5946      2.00000
     35      -4.5773      2.00000
     36      -4.5710      2.00000
     37      -4.5588      2.00000
     38      -4.5200      2.00000
     39      -4.5022      2.00000
     40      -4.4958      2.00000
     41      -4.4937      2.00000
     42      -4.4349      2.00000
     43      -4.3973      2.00000
     44      -4.3944      2.00000
     45      -4.3211      2.00000
     46      -4.3183      2.00000
     47      -4.3113      2.00000
     48      -4.2854      2.00000
     49      -4.2787      2.00000
     50      -4.2703      2.00000
     51      -4.2610      2.00000
     52      -4.2078      2.00000
     53      -4.1980      2.00000
     54      -4.1644      2.00000
     55      -4.0876      2.00000
     56      -4.0724      2.00000
     57      -4.0493      2.00000
     58      -4.0470      2.00000
     59      -3.9258      2.00000
     60      -3.9136      2.00000
     61      -3.9028      2.00000
     62      -3.8897      2.00000
     63      -3.8734      2.00000
     64      -3.8669      2.00000
     65      -3.8579      2.00000
     66      -3.8523      2.00000
     67      -3.8351      2.00000
     68      -3.8205      2.00000
     69      -3.7844      2.00000
     70      -3.7687      2.00000
     71      -3.7399      2.00000
     72      -3.7369      2.00000
     73      -3.7300      2.00000
     74      -3.7198      2.00000
     75      -3.6884      2.00000
     76      -3.6813      2.00000
     77      -3.6809      2.00000
     78      -3.6760      2.00000
     79      -3.6545      2.00000
     80      -3.6545      2.00000
     81      -3.6447      2.00000
     82      -3.6346      2.00000
     83      -3.6345      2.00000
     84      -3.5950      2.00000
     85      -3.5840      2.00000
     86      -3.5830      2.00000
     87      -3.5753      2.00000
     88      -3.5737      2.00000
     89      -3.5628      2.00000
     90      -3.5553      2.00000
     91      -3.5391      2.00000
     92      -3.5316      2.00000
     93      -3.5061      2.00000
     94      -3.4645      2.00000
     95      -3.4574      2.00000
     96      -3.4228      2.00000
     97      -3.4203      2.00000
     98      -3.3915      2.00000
     99      -3.3806      2.00000
    100      -3.2982      2.00000
    101      -3.2628      2.00000
    102      -3.2615      2.00000
    103      -3.2237      2.00000
[...]
  0.000   0.000   0.000   0.000   0.000   0.000   0.000   0.000   0.000   0.000   0.000   0.000   0.000   0.000   0.000   0.000
  0.000   0.000   0.000   0.000   0.000   0.000   0.000   0.000   0.000   0.000   0.000   0.000   0.000   0.000   0.000   0.000
  0.000   0.000   0.000   0.000   0.000   0.000   0.000   0.000   0.000   0.000   0.000   0.000   0.000   0.000   0.000   0.000
  0.000   0.000   0.000   0.000   0.000   0.000   0.000   0.000   0.000   0.000   0.000   0.000   0.000   0.000   0.000   0.000
  0.000   0.000   0.000   0.000   0.000   0.000   0.000   0.000   0.000   0.000   0.000   0.000   0.000   0.000   0.000   0.000
  0.000   0.000   0.000   0.000   0.000   0.000   0.000   0.000   0.000   0.000   1.000   0.000   0.000   0.000   0.000   0.000
  0.000   0.000   0.000   0.000   0.000   0.000   0.000   0.000   0.000   0.000   0.000   0.000   0.000   0.000   0.000   0.000
  0.000   0.000   0.000   0.000   0.000   0.000   0.000   0.000   0.000   0.000   0.000   0.000   0.000   0.000   0.000   0.000
  0.000   0.000   0.000   0.000   0.000   0.000   0.000   0.000   0.000   0.000   0.000   0.000   0.000   0.000   0.000   0.000
  0.000   0.000   0.000   0.000   0.000   0.000   0.000   0.000   0.000   0.000   0.000   0.000   0.000   0.000   0.000   0.000
  0.000   0.000   0.000   0.000   0.000   0.000   0.000   0.000   0.000   0.000   0.000   0.000   0.000   0.000   0.000   0.000
  0.000   0.000   0.000   0.000   0.000   0.000   0.000   0.000   0.000   0.000   0.000   0.000   0.000   0.000   0.000   0.000
  0.000   0.000   0.000   0.000   0.000   0.000   0.000   0.000   0.000   0.000   0.000   0.000   0.000   0.000   0.000   0.000


------------------------ aborting loop because EDIFF is reached ----------------------------------------





 total charge

# of ion       s       p       d       tot
------------------------------------------
    1        0.423   0.199   9.179   9.801
    2        0.414   0.204   9.178   9.796
    3        0.414   0.204   9.178   9.796
    4        0.414   0.204   9.178   9.796
    5        0.420   0.202   9.176   9.798
    6        0.414   0.204   9.178   9.796
    7        0.414   0.204   9.178   9.796
    8        0.414   0.204   9.178   9.796
    9        0.417   0.203   9.177   9.797
   10        0.411   0.268   9.163   9.842
   11        0.405   0.268   9.169   9.842
   12        0.411   0.268   9.163   9.842
   13        0.405   0.268   9.169   9.842
   14        0.405   0.268   9.169   9.842
   15        0.404   0.267   9.165   9.836
   16        0.411   0.268   9.163   9.842
   17        0.404   0.267   9.165   9.836
   18        0.404   0.267   9.165   9.836
   19        0.403   0.263   9.167   9.833
   20        0.447   0.296   9.135   9.878
   21        0.447   0.296   9.135   9.878
   22        0.393   0.272   9.165   9.830
   23        0.447   0.296   9.135   9.878
   24        0.393   0.272   9.165   9.830
   25        0.403   0.263   9.167   9.833
   26        0.403   0.263   9.167   9.833
   27        0.393   0.272   9.165   9.830
   28        0.409   0.202   9.173   9.784
   29        0.444   0.216   9.150   9.810
   30        0.444   0.216   9.150   9.810
   31        0.444   0.216   9.150   9.810
   32        0.444   0.216   9.150   9.810
   33        0.444   0.216   9.150   9.810
   34        0.444   0.216   9.150   9.810
   35        0.403   0.204   9.177   9.783
   36        2.194   5.980   2.319  10.492
   37        0.529   0.009   0.000   0.538
--------------------------------------------------
tot         17.332  14.420 323.065 354.817
 
    CHARGE:  cpu time    0.3177: real time    0.3178
    FORLOC:  cpu time    0.0100: real time    0.0100
    FORNL :  cpu time    1.4854: real time    1.4856
    STRESS:  cpu time    4.4539: real time    4.4541
    FORCOR:  cpu time    0.0416: real time    0.0417
    FORHAR:  cpu time    0.0163: real time    0.0164
    OFIELD:  cpu time    0.0002: real time    0.0002

  FORCE on cell =-STRESS in cart. coord.  units (eV):
  Direction    XX          YY          ZZ          XY          YZ          ZX
  --------------------------------------------------------------------------------------
  Alpha Z   758.90820   758.90820   758.90820
  Ewald  121992.99534121992.99544************     0.00003     0.00001     0.00000
  Hartree132308.89410132308.89413************     0.00001     0.00000     0.00000
  E(xc)   -2090.61636 -2090.61635 -2096.29575    -0.00001     0.00000     0.00000
  Local  ************************265994.06809     0.00019    -0.00004    -0.00008
  n-local  -329.98085  -315.19533  -328.01077     9.66778    -0.59231     0.50653
  augment  3236.92683  3236.92702  3251.65328    -0.00017    -0.00000     0.00002
  Kinetic  5012.08351  5016.89623  5057.57490     3.65622     0.17922     0.17852
  Fock        0.00000     0.00000     0.00000     0.00000     0.00000     0.00000
  -------------------------------------------------------------------------------------
  Total      -8.29015    -8.29015    -0.13592    -0.00000     0.00000     0.00000
  in kB      -8.94757    -8.94757    -0.14670    -0.00000     0.00000     0.00000
  external pressure =       -6.01 kB  Pullay stress =        0.00 kB


 VOLUME and BASIS-vectors are now :
 -----------------------------------------------------------------------------
  energy-cutoff  :      500.00
  volume of cell :     1484.46
      direct lattice vectors                 reciprocal lattice vectors
     8.791366577  0.000000000  0.000000000     0.113747958 -0.065672414  0.000000000
     4.395683289  7.613546790  0.000000000     0.000000000  0.131344829  0.000000000
     0.000000000  0.000000000 22.178121567     0.000000000  0.000000000  0.045089481

  length of vectors
     8.791366577  8.791366577 22.178121567     0.131344829  0.131344829  0.045089481


 FORCES acting on ions
    electron-ion (+dipol)            ewald-force                    non-local-force                 convergence-correction
 -----------------------------------------------------------------------------------------------
   0.461E-04 -.281E-04 0.252E+04   -.954E-04 0.593E-04 -.251E+04   -.319E-17 0.619E-17 -.185E+01   -.129E-03 -.181E-03 0.877E-01
   0.246E+00 0.807E+00 0.252E+04   -.310E+00 -.943E+00 -.251E+04   0.445E-01 0.196E+00 -.165E+01   0.204E-01 -.660E-01 0.186E+00
   -.246E+00 0.807E+00 0.252E+04   0.310E+00 -.943E+00 -.251E+04   -.445E-01 0.196E+00 -.165E+01   -.209E-01 -.641E-01 0.187E+00
   0.822E+00 -.190E+00 0.252E+04   -.972E+00 0.203E+00 -.251E+04   0.192E+00 -.594E-01 -.165E+01   -.468E-01 0.509E-01 0.186E+00
   -.721E-05 -.198E-04 0.252E+04   0.980E-04 -.199E-05 -.252E+04   -.131E-17 -.209E-17 -.122E+01   0.630E-02 0.385E-02 0.276E+00
   -.822E+00 -.190E+00 0.252E+04   0.972E+00 0.203E+00 -.251E+04   -.192E+00 -.594E-01 -.165E+01   0.453E-01 0.518E-01 0.187E+00
   0.576E+00 -.617E+00 0.252E+04   -.662E+00 0.740E+00 -.251E+04   0.147E+00 -.136E+00 -.165E+01   -.655E-01 0.144E-01 0.187E+00
   -.576E+00 -.617E+00 0.252E+04   0.662E+00 0.740E+00 -.251E+04   -.147E+00 -.136E+00 -.165E+01   0.672E-01 0.134E-01 0.187E+00
   0.363E-04 -.130E-04 0.251E+04   0.792E-04 -.643E-04 -.251E+04   -.649E-18 -.265E-17 -.166E+01   -.670E-02 -.346E-02 0.181E+00
   0.546E+01 0.315E+01 0.861E+03   -.515E+01 -.297E+01 -.861E+03   -.358E+00 -.207E+00 -.632E+00   0.162E-01 0.940E-02 0.512E+00
   -.285E-04 0.899E+01 0.868E+03   0.410E-04 -.903E+01 -.868E+03   0.597E-12 0.908E-01 -.164E+00   0.640E-02 -.841E-01 0.455E+00
   -.546E+01 0.315E+01 0.861E+03   0.515E+01 -.297E+01 -.861E+03   0.358E+00 -.207E+00 -.632E+00   -.181E-01 0.109E-01 0.513E+00
   0.778E+01 -.449E+01 0.868E+03   -.782E+01 0.452E+01 -.868E+03   0.787E-01 -.454E-01 -.164E+00   -.697E-01 0.476E-01 0.455E+00
   -.778E+01 -.449E+01 0.868E+03   0.782E+01 0.452E+01 -.868E+03   -.787E-01 -.454E-01 -.164E+00   0.808E-01 0.469E-01 0.455E+00
   0.160E-04 -.238E+01 0.857E+03   -.109E-03 0.224E+01 -.856E+03   0.551E-12 0.840E-01 -.710E+00   -.202E-02 0.448E-01 0.442E+00
   -.822E-05 -.630E+01 0.861E+03   0.207E-04 0.595E+01 -.861E+03   0.272E-11 0.414E+00 -.632E+00   0.334E-03 -.212E-01 0.513E+00
   -.206E+01 0.119E+01 0.857E+03   0.194E+01 -.112E+01 -.856E+03   0.727E-01 -.420E-01 -.710E+00   0.378E-01 -.242E-01 0.442E+00
   0.206E+01 0.119E+01 0.857E+03   -.194E+01 -.112E+01 -.856E+03   -.727E-01 -.420E-01 -.710E+00   -.379E-01 -.219E-01 0.442E+00
   0.411E-04 -.711E+00 -.831E+03   -.131E-03 0.671E+00 0.829E+03   0.438E-12 0.667E-01 0.883E+00   -.188E-02 -.366E-01 0.527E+00
   0.380E+02 0.219E+02 -.771E+03   -.369E+02 -.213E+02 0.771E+03   -.118E+01 -.684E+00 -.102E+01   -.234E-01 -.135E-01 0.701E+00
   -.380E+02 0.219E+02 -.771E+03   0.369E+02 -.213E+02 0.771E+03   0.118E+01 -.684E+00 -.102E+01   0.342E-01 -.123E-01 0.701E+00
   0.143E+02 -.828E+01 -.826E+03   -.144E+02 0.833E+01 0.825E+03   0.169E+00 -.979E-01 0.409E+00   -.304E-01 0.178E-01 0.469E+00
   -.566E-04 -.439E+02 -.771E+03   0.487E-04 0.426E+02 0.771E+03   0.899E-11 0.137E+01 -.102E+01   0.680E-02 0.364E-01 0.701E+00
   -.143E+02 -.828E+01 -.826E+03   0.144E+02 0.833E+01 0.825E+03   -.169E+00 -.979E-01 0.409E+00   0.289E-01 0.168E-01 0.469E+00
   0.616E+00 0.355E+00 -.831E+03   -.581E+00 -.335E+00 0.829E+03   -.578E-01 -.334E-01 0.883E+00   0.327E-01 0.187E-01 0.526E+00
   -.616E+00 0.355E+00 -.831E+03   0.581E+00 -.335E+00 0.829E+03   0.578E-01 -.334E-01 0.883E+00   -.329E-01 0.165E-01 0.527E+00
   0.211E-04 0.166E+02 -.826E+03   0.109E-03 -.167E+02 0.825E+03   0.129E-11 0.196E+00 0.409E+00   -.469E-03 -.353E-01 0.469E+00
   0.543E-04 -.359E-04 -.249E+04   -.117E-03 0.779E-04 0.249E+04   -.283E-17 -.415E-17 0.173E+01   -.117E-03 -.204E-03 0.100E-01
   0.313E+02 0.486E+02 -.251E+04   -.304E+02 -.475E+02 0.250E+04   -.101E+01 -.137E+01 0.122E+01   0.168E+00 0.297E+00 0.151E+00
   -.313E+02 0.486E+02 -.251E+04   0.304E+02 -.475E+02 0.250E+04   0.101E+01 -.137E+01 0.122E+01   -.168E+00 0.299E+00 0.151E+00
   0.577E+02 0.279E+01 -.251E+04   -.564E+02 -.258E+01 0.250E+04   -.169E+01 -.189E+00 0.122E+01   0.341E+00 -.261E-02 0.151E+00
   -.577E+02 0.279E+01 -.251E+04   0.564E+02 -.258E+01 0.250E+04   0.169E+01 -.189E+00 0.122E+01   -.343E+00 -.180E-02 0.150E+00
   0.264E+02 -.513E+02 -.251E+04   -.260E+02 0.501E+02 0.250E+04   -.682E+00 0.156E+01 0.122E+01   0.175E+00 -.295E+00 0.151E+00
   -.264E+02 -.513E+02 -.251E+04   0.260E+02 0.501E+02 0.250E+04   0.682E+00 0.156E+01 0.122E+01   -.173E+00 -.296E+00 0.150E+00
   0.220E-04 -.102E-04 -.249E+04   0.105E-03 -.665E-04 0.249E+04   0.222E-17 0.526E-20 0.197E+01   -.677E-02 -.348E-02 0.927E-01
   0.230E-03 -.161E-03 -.281E+04   0.123E-03 0.141E-04 0.281E+04   -.135E-17 -.120E-18 -.234E+01   0.741E-02 0.452E-02 0.583E+00
   0.729E-05 -.566E-05 -.297E+03   0.452E-05 0.607E-07 0.299E+03   0.126E-18 -.595E-19 -.204E+01   0.142E-03 0.866E-04 -.945E-01
 -----------------------------------------------------------------------------------------------
   0.566E-03 -.858E-03 -.671E+00   -.461E-13 0.330E-13 -.932E-11   -.110E-15 0.222E-15 -.117E+02   0.265E-01 0.187E-01 0.125E+02
 
 
 POSITION                                       TOTAL-FORCE (eV/Angst)
 -----------------------------------------------------------------------------------
      0.00000      0.00000      5.28219         0.000000     -0.000000     -0.037836
      2.93046      0.00000      5.28219         0.001970     -0.005414      0.036831
      5.86091      0.00000      5.28219        -0.001970     -0.005414      0.036831
      1.46523      2.53785      5.28219        -0.003703      0.004413      0.036831
      4.39568      2.53785      5.28219         0.000000     -0.000000      0.015542
      7.32614      2.53785      5.28219         0.003703      0.004413      0.036831
      2.93046      5.07570      5.28219        -0.005674      0.001000      0.036831
      5.86091      5.07570      5.28219         0.005674      0.001000      0.036831
      8.79137      5.07570      5.28219         0.000000     -0.000000      0.000610
      1.46523      0.84595      7.67490        -0.033487     -0.019334     -0.061627
      4.39568      0.84595      7.67490        -0.000000     -0.045477     -0.057674
      7.32614      0.84595      7.67490         0.033487     -0.019334     -0.061627
      2.93046      3.38380      7.67490        -0.039384      0.022739     -0.057674
      5.86091      3.38380      7.67490         0.039384      0.022739     -0.057674
      8.79137      3.38380      7.67490        -0.000000     -0.010255      0.023817
      4.39568      5.92165      7.67490         0.000000      0.038668     -0.061627
      7.32614      5.92165      7.67490        -0.008881      0.005127      0.023817
     10.25659      5.92165      7.67490         0.008881      0.005127      0.023817
      8.79137      1.69211     10.06133        -0.000000     -0.010274      0.010064
      2.92756      1.69022     10.03254        -0.123734     -0.071438     -0.113918
      5.86381      1.69022     10.03254         0.123734     -0.071438     -0.113918
     10.25459      4.23091     10.07004         0.043150     -0.024913      0.015211
      4.39568      4.23310     10.03254         0.000000      0.142876     -0.113918
      7.32815      4.23091     10.07004        -0.043150     -0.024913      0.015211
     11.72164      6.76749     10.06133         0.008897      0.005137      0.010064
      5.86110      6.76749     10.06133        -0.008897      0.005137      0.010064
      8.79137      6.76528     10.07004         0.000000      0.049825      0.015211
      0.00000      0.00000     12.45237         0.000000     -0.000000      0.030822
      2.94700      0.02679     12.48745        -0.013257     -0.045509     -0.046232
      5.84437      0.02679     12.48745         0.013257     -0.045509     -0.046232
      1.49670      2.53878     12.48745        -0.046040      0.011273     -0.046232
      7.29466      2.53878     12.48745         0.046040      0.011273     -0.046232
      2.94539      5.04797     12.48745        -0.032783      0.034236     -0.046232
      5.84598      5.04797     12.48745         0.032783      0.034236     -0.046232
      8.79137      5.07570     12.46721         0.000000     -0.000000      0.044368
      4.39568      2.53785     12.28926         0.000000     -0.000000      0.526332
      4.39568      2.53785     14.06650         0.000000     -0.000000      0.028943
 -----------------------------------------------------------------------------------
    total drift:                                0.027064      0.017818      0.108861


--------------------------------------------------------------------------------------------------------



  FREE ENERGIE OF THE ION-ELECTRON SYSTEM (eV)
  ---------------------------------------------------
  free  energy   TOTEN  =      -100.06837884 eV

  energy  without entropy=     -100.06837884  energy(sigma->0) =     -100.06837884
 


--------------------------------------------------------------------------------------------------------


    POTLOK:  cpu time    0.0458: real time    0.0458


--------------------------------------------------------------------------------------------------------


 stress matrix after NEB project (eV)
     -8.29015     -0.00000      0.00000
     -0.00000     -8.29015      0.00000
      0.00000      0.00000     -0.13592
  FORCES: max atom, RMS     0.028943    0.004758
  FORCE total and by dimension    0.028943    0.028943
  Stress total and by dimension   11.724834    8.290152
     LOOP+:  cpu time   92.6373: real time   92.6525
 -----------------------------------------------------------------------------
|                                                                             |
|           W    W    AA    RRRRR   N    N  II  N    N   GGGG   !!!           |
|           W    W   A  A   R    R  NN   N  II  NN   N  G    G  !!!           |
|           W    W  A    A  R    R  N N  N  II  N N  N  G       !!!           |
|           W WW W  AAAAAA  RRRRR   N  N N  II  N  N N  G  GGG   !            |
|           WW  WW  A    A  R   R   N   NN  II  N   NN  G    G                |
|           W    W  A    A  R    R  N    N  II  N    N   GGGG   !!!           |
|                                                                             |
|     Tetrahedron method does not include variations of the Fermi             |
|     occupations, so forces and stress will be inaccurate. We suggest        |
|     using a different smearing scheme ISMEAR = 1 or 2 for metals in         |
|     relaxations.                                                            |
|                                                                             |
 -----------------------------------------------------------------------------

    4ORBIT:  cpu time    0.0000: real time    0.0000



 total charge

# of ion       s       p       d       tot
------------------------------------------
    1        0.423   0.199   9.179   9.801
    2        0.414   0.204   9.178   9.796
    3        0.414   0.204   9.178   9.796
    4        0.414   0.204   9.178   9.796
    5        0.420   0.202   9.176   9.798
    6        0.414   0.204   9.178   9.796
    7        0.414   0.204   9.178   9.796
    8        0.414   0.204   9.178   9.796
    9        0.417   0.203   9.177   9.797
   10        0.411   0.268   9.163   9.842
   11        0.405   0.268   9.169   9.842
   12        0.411   0.268   9.163   9.842
   13        0.405   0.268   9.169   9.842
   14        0.405   0.268   9.169   9.842
   15        0.404   0.267   9.165   9.836
   16        0.411   0.268   9.163   9.842
   17        0.404   0.267   9.165   9.836
   18        0.404   0.267   9.165   9.836
   19        0.403   0.263   9.167   9.833
   20        0.447   0.296   9.135   9.878
   21        0.447   0.296   9.135   9.878
   22        0.393   0.272   9.165   9.830
   23        0.447   0.296   9.135   9.878
   24        0.393   0.272   9.165   9.830
   25        0.403   0.263   9.167   9.833
   26        0.403   0.263   9.167   9.833
   27        0.393   0.272   9.165   9.830
   28        0.409   0.202   9.173   9.784
   29        0.444   0.216   9.150   9.810
   30        0.444   0.216   9.150   9.810
   31        0.444   0.216   9.150   9.810
   32        0.444   0.216   9.150   9.810
   33        0.444   0.216   9.150   9.810
   34        0.444   0.216   9.150   9.810
   35        0.403   0.204   9.177   9.783
   36        2.194   5.980   2.319  10.492
   37        0.529   0.009   0.000   0.538
--------------------------------------------------
tot         17.332  14.420 323.065 354.817
 
 BZINTS: Fermi energy:    0.812613;  399.000000 electrons
         Band energy:-0.157606E+04;  BLOECHL correction:   -0.020152

 total amount of memory used by VASP MPI-rank0   123503. kBytes
=======================================================================

   base      :      30000. kBytes
   nonlr-proj:      15400. kBytes
   fftplans  :       4330. kBytes
   grid      :      17879. kBytes
   one-center:        575. kBytes
   wavefun   :      55319. kBytes
 
  
  
 General timing and accounting informations for this job:
 ========================================================
  
                  Total CPU time used (sec):       99.949
                            User time (sec):       96.707
                          System time (sec):        3.242
                         Elapsed time (sec):      102.127
  
                   Maximum memory used (kb):      383520.
                   Average memory used (kb):          N/A
  
                          Minor page faults:        87511
                          Major page faults:            0
                 Voluntary context switches:         5281
