PROCAR new format
# of k-points:   10         # of bands:  252         # of ions:   37

 k-point     1 :    0.00000000 0.00000000 0.00000000     weight = 0.01562500

band     1 # energy  -54.59362171 # occ.  2.00000000
 
ion      s      p      d    tot
    1  0.000  0.000  0.000  0.000
    2  0.000  0.000  0.000  0.000
    3  0.000  0.000  0.000  0.000
    4  0.000  0.000  0.000  0.000
    5  0.000  0.000  0.000  0.000
    6  0.000  0.000  0.000  0.000
    7  0.000  0.000  0.000  0.000
    8  0.000  0.000  0.000  0.000
    9  0.000  0.000  0.000  0.000
   10  0.000  0.000  0.000  0.000
   11  0.000  0.000  0.000  0.000
   12  0.000  0.000  0.000  0.000
   13  0.000  0.000  0.000  0.000
   14  0.000  0.000  0.000  0.000
   15  0.000  0.000  0.000  0.000
   16  0.000  0.000  0.000  0.000
   17  0.000  0.000  0.000  0.000
   18  0.000  0.000  0.000  0.000
   19  0.000  0.000  0.000  0.000
   20  0.000  0.000  0.000  0.000
   21  0.000  0.000  0.000  0.000
   22  0.000  0.000  0.000  0.000
   23  0.000  0.000  0.000  0.000
   24  0.000  0.000  0.000  0.000
   25  0.000  0.000  0.000  0.000
   26  0.000  0.000  0.000  0.000
   27  0.000  0.000  0.000  0.000
   28  0.000  0.000  0.000  0.000
   29  0.000  0.000  0.000  0.000
   30  0.000  0.000  0.000  0.000
   31  0.000  0.000  0.000  0.000
   32  0.000  0.000  0.000  0.000
   33  0.000  0.000  0.000  0.000
   34  0.000  0.000  0.000  0.000
   35  0.000  0.000  0.000  0.000
   36  0.993  0.000  0.000  0.993
   37  0.000  0.000  0.000  0.000
tot    0.993  0.000  0.000  0.993
 
band     2 # energy  -30.69919366 # occ.  2.00000000
 
ion      s      p      d    tot
    1  0.000  0.000  0.000  0.000
    2  0.000  0.000  0.000  0.000
    3  0.000  0.000  0.000  0.000
    4  0.000  0.000  0.000  0.000
    5  0.000  0.000  0.000  0.000
    6  0.000  0.000  0.000  0.000
    7  0.000  0.000  0.000  0.000
    8  0.000  0.000  0.000  0.000
    9  0.000  0.000  0.000  0.000
   10  0.000  0.000  0.000  0.000
   11  0.000  0.000  0.000  0.000
   12  0.000  0.000  0.000  0.000
   13  0.000  0.000  0.000  0.000
   14  0.000  0.000  0.000  0.000
   15  0.000  0.000  0.000  0.000
   16  0.000  0.000  0.000  0.000
   17  0.000  0.000  0.000  0.000
   18  0.000  0.000  0.000  0.000
   19  0.000  0.000  0.000  0.000
   20  0.000  0.000  0.000  0.000
   21  0.000  0.000  0.000  0.000
   22  0.000  0.000  0.000  0.000
   23  0.000  0.000  0.000  0.000
   24  0.000  0.000  0.000  0.000
   25  0.000  0.000  0.000  0.000
   26  0.000  0.000  0.000  0.000
   27  0.000  0.000  0.000  0.000
   28  0.000  0.000  0.000  0.000
   29  0.000  0.000  0.000  0.000
   30  0.000  0.000  0.000  0.000
   31  0.000  0.000  0.000  0.000
   32  0.000  0.000  0.000  0.000
   33  0.000  0.000  0.000  0.000
   34  0.000  0.000  0.000  0.000
   35  0.000  0.000  0.000  0.000
   36  0.000  0.973  0.000  0.973
   37  0.000  0.000  0.000  0.000
tot    0.000  0.974  0.000  0.975
 
band     3 # energy  -30.69918677 # occ.  2.00000000
 
ion      s      p      d    tot
    1  0.000  0.000  0.000  0.000
    2  0.000  0.000  0.000  0.000
    3  0.000  0.000  0.000  0.000
    4  0.000  0.000  0.000  0.000
    5  0.000  0.000  0.000  0.000
    6  0.000  0.000  0.000  0.000
    7  0.000  0.000  0.000  0.000
    8  0.000  0.000  0.000  0.000
    9  0.000  0.000  0.000  0.000
   10  0.000  0.000  0.000  0.000
   11  0.000  0.000  0.000  0.000
   12  0.000  0.000  0.000  0.000
   13  0.000  0.000  0.000  0.000
   14  0.000  0.000  0.000  0.000
   15  0.000  0.000  0.000  0.000
   16  0.000  0.000  0.000  0.000
   17  0.000  0.000  0.000  0.000
   18  0.000  0.000  0.000  0.000
   19  0.000  0.000  0.000  0.000
   20  0.000  0.000  0.000  0.000
   21  0.000  0.000  0.000  0.000
   22  0.000  0.000  0.000  0.000
   23  0.000  0.000  0.000  0.000
   24  0.000  0.000  0.000  0.000
   25  0.000  0.000  0.000  0.000
   26  0.000  0.000  0.000  0.000
   27  0.000  0.000  0.000  0.000
   28  0.000  0.000  0.000  0.000
   29  0.000  0.000  0.000  0.000
   30  0.000  0.000  0.000  0.000
   31  0.000  0.000  0.000  0.000
   32  0.000  0.000  0.000  0.000
   33  0.000  0.000  0.000  0.000
   34  0.000  0.000  0.000  0.000
   35  0.000  0.000  0.000  0.000
   36  0.000  0.973  0.000  0.973
   37  0.000  0.000  0.000  0.000
tot    0.000  0.974  0.000  0.975
 
band     4 # energy  -30.51129375 # occ.  2.00000000
 
ion      s      p      d    tot
    1  0.000  0.000  0.000  0.000
    2  0.000  0.000  0.000  0.000
    3  0.000  0.000  0.000  0.000
    4  0.000  0.000  0.000  0.000
    5  0.000  0.000  0.000  0.000
    6  0.000  0.000  0.000  0.000
    7  0.000  0.000  0.000  0.000
    8  0.000  0.000  0.000  0.000
    9  0.000  0.000  0.000  0.000
   10  0.000  0.000  0.000  0.000
   11  0.000  0.000  0.000  0.000
   12  0.000  0.000  0.000  0.000
   13  0.000  0.000  0.000  0.000
   14  0.000  0.000  0.000  0.000
   15  0.000  0.000  0.000  0.000
   16  0.000  0.000  0.000  0.000
   17  0.000  0.000  0.000  0.000
   18  0.000  0.000  0.000  0.000
   19  0.000  0.000  0.000  0.000
   20  0.000  0.000  0.000  0.000
   21  0.000  0.000  0.000  0.000
   22  0.000  0.000  0.000  0.000
   23  0.000  0.000  0.000  0.000
   24  0.000  0.000  0.000  0.000
   25  0.000  0.000  0.000  0.000
   26  0.000  0.000  0.000  0.000
   27  0.000  0.000  0.000  0.000
   28  0.000  0.000  0.000  0.000
   29  0.000  0.000  0.000  0.000
   30  0.000  0.000  0.000  0.000
   31  0.000  0.000  0.000  0.000
   32  0.000  0.000  0.000  0.000
   33  0.000  0.000  0.000  0.000
   34  0.000  0.000  0.000  0.000
   35  0.000  0.000  0.000  0.000
   36  0.000  0.971  0.000  0.971
   37  0.002  0.000  0.000  0.002
tot    0.002  0.972  0.000  0.974
 
band     5 # energy   -6.32050002 # occ.  2.00000000
 
ion      s      p      d    tot
    1  0.006  0.001  0.000  0.007
    2  0.006  0.001  0.000  0.006
    3  0.006  0.001  0.000  0.006
    4  0.006  0.001  0.000  0.006
    5  0.006  0.001  0.000  0.007
    6  0.006  0.001  0.000  0.006
    7  0.006  0.001  0.000  0.006
    8  0.006  0.001  0.000  0.006
    9  0.006  0.001  0.000  0.006
   10  0.024  0.000  0.000  0.024
   11  0.024  0.000  0.000  0.024
   12  0.024  0.000  0.000  0.024
   13  0.024  0.000  0.000  0.024
   14  0.024  0.000  0.000  0.024
   15  0.022  0.000  0.000  0.023
   16  0.024  0.000  0.000  0.024
   17  0.022  0.000  0.000  0.023
   18  0.022  0.000  0.000  0.023
   19  0.023  0.000  0.000  0.023
   20  0.025  0.000  0.000  0.026
   21  0.025  0.000  0.000  0.026
   22  0.022  0.000  0.000  0.022
   23  0.025  0.000  0.000  0.026
   24  0.022  0.000  0.000  0.022
   25  0.023  0.000  0.000  0.023
   26  0.023  0.000  0.000  0.023
   27  0.022  0.000  0.000  0.022
   28  0.006  0.001  0.000  0.006
   29  0.006  0.001  0.000  0.006
   30  0.006  0.001  0.000  0.006
   31  0.006  0.001  0.000  0.006
   32  0.006  0.001  0.000  0.006
   33  0.006  0.001  0.000  0.006
   34  0.006  0.001  0.000  0.006
   35  0.005  0.001  0.000  0.006
   36  0.004  0.000  0.000  0.004
   37  0.000  0.000  0.000  0.000
tot    0.520  0.012  0.006  0.538
 
band     6 # energy   -5.46049382 # occ.  2.00000000
 
ion      s      p      d    tot
    1  0.008  0.000  0.000  0.009
    2  0.008  0.000  0.000  0.009
    3  0.008  0.000  0.000  0.009
    4  0.008  0.000  0.000  0.009
    5  0.008  0.000  0.000  0.009
    6  0.008  0.000  0.000  0.009
    7  0.008  0.000  0.000  0.009
    8  0.008  0.000  0.000  0.009
    9  0.008  0.000  0.000  0.009
   10  0.011  0.001  0.016  0.028
   11  0.011  0.001  0.014  0.027
   12  0.011  0.001  0.016  0.028
   13  0.011  0.001  0.014  0.027
   14  0.011  0.001  0.014  0.027
   15  0.011  0.001  0.012  0.024
   16  0.011  0.001  0.016  0.028
   17  0.011  0.001  0.012  0.024
   18  0.011  0.001  0.012  0.024
   19  0.012  0.001  0.015  0.027
   20  0.013  0.001  0.021  0.035
   21  0.013  0.001  0.021  0.035
   22  0.010  0.001  0.013  0.025
   23  0.013  0.001  0.021  0.035
   24  0.010  0.001  0.013  0.025
   25  0.012  0.001  0.015  0.027
   26  0.012  0.001  0.015  0.027
   27  0.010  0.001  0.013  0.025
   28  0.007  0.000  0.000  0.008
   29  0.007  0.000  0.000  0.008
   30  0.007  0.000  0.000  0.008
   31  0.007  0.000  0.000  0.008
   32  0.007  0.000  0.000  0.008
   33  0.007  0.000  0.000  0.008
   34  0.007  0.000  0.000  0.008
   35  0.007  0.000  0.000  0.007
   36  0.005  0.000  0.000  0.005
   37  0.001  0.000  0.000  0.001
tot    0.339  0.024  0.283  0.646
 
band     7 # energy   -5.18427879 # occ.  2.00000000
 
ion      s      p      d    tot
    1  0.010  0.000  0.021  0.032
    2  0.011  0.000  0.017  0.028
    3  0.011  0.000  0.017  0.028
    4  0.011  0.000  0.017  0.028
    5  0.011  0.000  0.015  0.026
    6  0.011  0.000  0.017  0.028
    7  0.011  0.000  0.017  0.028
    8  0.011  0.000  0.017  0.028
    9  0.012  0.000  0.015  0.028
   10  0.001  0.000  0.021  0.022
   11  0.000  0.000  0.018  0.019
   12  0.001  0.000  0.021  0.022
   13  0.000  0.000  0.018  0.019
   14  0.000  0.000  0.018  0.019
   15  0.000  0.000  0.014  0.014
   16  0.001  0.000  0.021  0.022
   17  0.000  0.000  0.014  0.014
   18  0.000  0.000  0.014  0.014
   19  0.000  0.000  0.013  0.013
   20  0.000  0.000  0.027  0.027
   21  0.000  0.000  0.027  0.027
   22  0.000  0.000  0.011  0.011
   23  0.000  0.000  0.027  0.027
   24  0.000  0.000  0.011  0.011
   25  0.000  0.000  0.013  0.013
   26  0.000  0.000  0.013  0.013
   27  0.000  0.000  0.011  0.011
   28  0.008  0.000  0.011  0.019
   29  0.010  0.000  0.013  0.023
   30  0.010  0.000  0.013  0.023
   31  0.010  0.000  0.013  0.023
   32  0.010  0.000  0.013  0.023
   33  0.010  0.000  0.013  0.023
   34  0.010  0.000  0.013  0.023
   35  0.009  0.000  0.012  0.021
   36  0.006  0.000  0.003  0.009
   37  0.000  0.000  0.000  0.000
tot    0.186  0.006  0.568  0.760
 
band     8 # energy   -5.08836071 # occ.  2.00000000
 
ion      s      p      d    tot
    1  0.006  0.001  0.002  0.009
    2  0.000  0.000  0.005  0.005
    3  0.000  0.000  0.005  0.005
    4  0.000  0.000  0.005  0.005
    5  0.001  0.000  0.000  0.002
    6  0.000  0.000  0.005  0.005
    7  0.000  0.000  0.005  0.005
    8  0.000  0.000  0.005  0.005
    9  0.001  0.000  0.000  0.001
   10  0.007  0.000  0.027  0.034
   11  0.000  0.000  0.021  0.021
   12  0.007  0.000  0.027  0.034
   13  0.000  0.000  0.021  0.021
   14  0.000  0.000  0.021  0.021
   15  0.005  0.001  0.003  0.008
   16  0.007  0.000  0.027  0.034
   17  0.005  0.001  0.003  0.008
   18  0.005  0.001  0.003  0.008
   19  0.001  0.001  0.035  0.036
   20  0.005  0.000  0.112  0.118
   21  0.005  0.000  0.112  0.117
   22  0.016  0.001  0.008  0.024
   23  0.005  0.000  0.112  0.117
   24  0.016  0.001  0.008  0.024
   25  0.001  0.001  0.035  0.036
   26  0.001  0.001  0.035  0.036
   27  0.016  0.001  0.008  0.024
   28  0.000  0.000  0.001  0.001
   29  0.000  0.000  0.004  0.004
   30  0.000  0.000  0.004  0.004
   31  0.000  0.000  0.004  0.004
   32  0.000  0.000  0.004  0.004
   33  0.000  0.000  0.004  0.004
   34  0.000  0.000  0.004  0.004
   35  0.005  0.001  0.002  0.009
   36  0.003  0.001  0.006  0.010
   37  0.001  0.000  0.000  0.001
tot    0.119  0.013  0.679  0.811
 
band     9 # energy   -5.05577986 # occ.  2.00000000
 
ion      s      p      d    tot
    1  0.000  0.000  0.006  0.006
    2  0.000  0.000  0.003  0.003
    3  0.001  0.000  0.002  0.003
    4  0.000  0.000  0.003  0.003
    5  0.000  0.000  0.003  0.003
    6  0.000  0.000  0.003  0.003
    7  0.001  0.000  0.002  0.003
    8  0.000  0.000  0.003  0.003
    9  0.000  0.000  0.003  0.003
   10  0.000  0.001  0.023  0.024
   11  0.001  0.000  0.026  0.027
   12  0.004  0.001  0.025  0.030
   13  0.001  0.000  0.027  0.028
   14  0.000  0.000  0.046  0.046
   15  0.008  0.001  0.014  0.023
   16  0.004  0.001  0.025  0.030
   17  0.008  0.001  0.014  0.023
   18  0.000  0.000  0.019  0.019
   19  0.018  0.001  0.034  0.052
   20  0.000  0.000  0.147  0.147
   21  0.009  0.000  0.051  0.060
   22  0.001  0.001  0.032  0.034
   23  0.009  0.000  0.049  0.058
   24  0.000  0.001  0.022  0.023
   25  0.000  0.001  0.045  0.046
   26  0.018  0.001  0.034  0.052
   27  0.001  0.001  0.032  0.034
   28  0.000  0.000  0.006  0.006
   29  0.000  0.000  0.006  0.007
   30  0.000  0.000  0.003  0.003
   31  0.000  0.000  0.006  0.007
   32  0.000  0.000  0.004  0.004
   33  0.000  0.000  0.002  0.003
   34  0.000  0.000  0.004  0.004
   35  0.000  0.000  0.001  0.001
   36  0.000  0.000  0.002  0.002
   37  0.000  0.000  0.000  0.000
tot    0.084  0.012  0.727  0.823
 
band    10 # energy   -5.05574914 # occ.  2.00000000
 
ion      s      p      d    tot
    1  0.000  0.000  0.006  0.006
    2  0.000  0.000  0.003  0.003
    3  0.000  0.000  0.003  0.003
    4  0.000  0.000  0.003  0.003
    5  0.000  0.000  0.003  0.003
    6  0.000  0.000  0.002  0.003
    7  0.000  0.000  0.003  0.003
    8  0.000  0.000  0.002  0.003
    9  0.000  0.000  0.003  0.003
   10  0.005  0.001  0.026  0.032
   11  0.000  0.000  0.040  0.040
   12  0.001  0.001  0.024  0.026
   13  0.000  0.000  0.039  0.040
   14  0.001  0.000  0.020  0.021
   15  0.003  0.000  0.018  0.021
   16  0.001  0.001  0.024  0.026
   17  0.003  0.000  0.018  0.021
   18  0.011  0.001  0.013  0.024
   19  0.006  0.001  0.041  0.048
   20  0.012  0.000  0.018  0.030
   21  0.003  0.000  0.114  0.117
   22  0.000  0.001  0.025  0.027
   23  0.003  0.000  0.116  0.119
   24  0.002  0.000  0.035  0.037
   25  0.024  0.001  0.030  0.054
   26  0.006  0.001  0.041  0.048
   27  0.000  0.001  0.025  0.027
   28  0.000  0.000  0.006  0.006
   29  0.000  0.000  0.002  0.002
   30  0.000  0.000  0.006  0.006
   31  0.000  0.000  0.002  0.002
   32  0.000  0.000  0.005  0.005
   33  0.000  0.000  0.006  0.006
   34  0.000  0.000  0.005  0.005
   35  0.000  0.000  0.001  0.001
   36  0.000  0.000  0.002  0.002
   37  0.000  0.000  0.000  0.000
tot    0.084  0.012  0.727  0.823
 
band    11 # energy   -5.04568972 # occ.  2.00000000
 
ion      s      p      d    tot
    1  0.000  0.000  0.008  0.008
    2  0.002  0.001  0.007  0.010
    3  0.002  0.001  0.004  0.006
    4  0.002  0.001  0.007  0.009
    5  0.000  0.000  0.009  0.009
    6  0.000  0.000  0.004  0.004
    7  0.001  0.001  0.003  0.006
    8  0.000  0.000  0.004  0.004
    9  0.000  0.000  0.000  0.000
   10  0.000  0.000  0.105  0.105
   11  0.024  0.001  0.033  0.058
   12  0.012  0.001  0.033  0.045
   13  0.024  0.001  0.034  0.058
   14  0.000  0.001  0.066  0.067
   15  0.002  0.000  0.029  0.031
   16  0.012  0.001  0.031  0.043
   17  0.002  0.000  0.029  0.031
   18  0.000  0.001  0.012  0.014
   19  0.001  0.000  0.018  0.019
   20  0.000  0.001  0.036  0.037
   21  0.015  0.001  0.029  0.045
   22  0.006  0.001  0.014  0.021
   23  0.015  0.001  0.029  0.045
   24  0.000  0.000  0.035  0.035
   25  0.000  0.001  0.013  0.014
   26  0.001  0.000  0.018  0.019
   27  0.006  0.001  0.013  0.020
   28  0.000  0.000  0.001  0.001
   29  0.000  0.000  0.002  0.003
   30  0.001  0.000  0.003  0.004
   31  0.000  0.000  0.002  0.003
   32  0.002  0.000  0.004  0.006
   33  0.001  0.000  0.003  0.004
   34  0.002  0.000  0.004  0.006
   35  0.000  0.000  0.005  0.005
   36  0.000  0.000  0.003  0.003
   37  0.000  0.000  0.000  0.000
tot    0.132  0.017  0.649  0.798
 
band    12 # energy   -5.04568043 # occ.  2.00000000
 
ion      s      p      d    tot
    1  0.000  0.000  0.008  0.008
    2  0.000  0.000  0.002  0.003
    3  0.001  0.000  0.006  0.007
    4  0.000  0.000  0.002  0.003
    5  0.000  0.000  0.009  0.009
    6  0.002  0.001  0.006  0.009
    7  0.001  0.000  0.006  0.007
    8  0.002  0.001  0.006  0.009
    9  0.000  0.000  0.000  0.000
   10  0.016  0.001  0.007  0.024
   11  0.008  0.001  0.055  0.064
   12  0.004  0.000  0.079  0.084
   13  0.008  0.001  0.055  0.064
   14  0.032  0.001  0.022  0.055
   15  0.001  0.001  0.017  0.019
   16  0.004  0.000  0.081  0.085
   17  0.001  0.001  0.018  0.019
   18  0.002  0.000  0.035  0.037
   19  0.000  0.001  0.015  0.016
   20  0.020  0.001  0.027  0.048
   21  0.005  0.001  0.033  0.040
   22  0.002  0.000  0.028  0.030
   23  0.005  0.001  0.034  0.039
   24  0.008  0.001  0.006  0.015
   25  0.001  0.000  0.020  0.021
   26  0.000  0.001  0.015  0.016
   27  0.002  0.000  0.028  0.030
   28  0.000  0.000  0.001  0.001
   29  0.002  0.000  0.004  0.006
   30  0.001  0.000  0.003  0.005
   31  0.002  0.000  0.004  0.006
   32  0.000  0.000  0.002  0.003
   33  0.001  0.000  0.003  0.005
   34  0.000  0.000  0.002  0.002
   35  0.000  0.000  0.005  0.005
   36  0.000  0.000  0.003  0.003
   37  0.000  0.000  0.000  0.000
tot    0.132  0.017  0.649  0.798
 
band    13 # energy   -5.04074412 # occ.  2.00000000
 
ion      s      p      d    tot
    1  0.006  0.001  0.000  0.006
    2  0.002  0.000  0.009  0.011
    3  0.002  0.000  0.009  0.011
    4  0.002  0.000  0.009  0.011
    5  0.001  0.000  0.023  0.024
    6  0.002  0.000  0.009  0.011
    7  0.002  0.000  0.009  0.011
    8  0.002  0.000  0.009  0.011
    9  0.001  0.000  0.003  0.004
   10  0.004  0.001  0.012  0.017
   11  0.008  0.000  0.073  0.082
   12  0.004  0.001  0.012  0.017
   13  0.008  0.000  0.073  0.082
   14  0.008  0.000  0.073  0.082
   15  0.002  0.000  0.034  0.036
   16  0.004  0.001  0.012  0.017
   17  0.002  0.000  0.034  0.036
   18  0.002  0.000  0.034  0.036
   19  0.001  0.000  0.028  0.028
   20  0.003  0.001  0.046  0.050
   21  0.003  0.001  0.046  0.050
   22  0.000  0.000  0.008  0.009
   23  0.003  0.001  0.046  0.050
   24  0.000  0.000  0.008  0.009
   25  0.001  0.000  0.027  0.028
   26  0.001  0.000  0.028  0.028
   27  0.000  0.000  0.008  0.009
   28  0.001  0.000  0.000  0.001
   29  0.001  0.000  0.007  0.008
   30  0.001  0.000  0.007  0.008
   31  0.001  0.000  0.007  0.008
   32  0.001  0.000  0.007  0.008
   33  0.001  0.000  0.007  0.008
   34  0.001  0.000  0.007  0.008
   35  0.000  0.000  0.002  0.003
   36  0.002  0.000  0.001  0.004
   37  0.000  0.000  0.000  0.000
tot    0.086  0.010  0.725  0.821
 
band    14 # energy   -5.02661851 # occ.  2.00000000
 
ion      s      p      d    tot
    1  0.001  0.000  0.000  0.001
    2  0.001  0.000  0.010  0.012
    3  0.001  0.000  0.010  0.012
    4  0.001  0.000  0.010  0.012
    5  0.011  0.001  0.002  0.014
    6  0.001  0.000  0.010  0.012
    7  0.001  0.000  0.010  0.012
    8  0.001  0.000  0.010  0.012
    9  0.001  0.001  0.020  0.022
   10  0.002  0.001  0.042  0.046
   11  0.007  0.001  0.008  0.016
   12  0.002  0.001  0.042  0.045
   13  0.007  0.001  0.008  0.016
   14  0.008  0.001  0.008  0.016
   15  0.010  0.000  0.047  0.058
   16  0.002  0.001  0.042  0.045
   17  0.010  0.000  0.047  0.058
   18  0.010  0.000  0.047  0.057
   19  0.011  0.000  0.010  0.022
   20  0.004  0.001  0.022  0.026
   21  0.004  0.001  0.022  0.026
   22  0.000  0.000  0.029  0.030
   23  0.004  0.001  0.022  0.026
   24  0.000  0.000  0.029  0.030
   25  0.011  0.000  0.010  0.022
   26  0.011  0.000  0.010  0.022
   27  0.000  0.000  0.029  0.030
   28  0.002  0.001  0.006  0.009
   29  0.001  0.000  0.011  0.013
   30  0.001  0.000  0.012  0.013
   31  0.001  0.000  0.011  0.013
   32  0.001  0.000  0.012  0.013
   33  0.001  0.000  0.012  0.013
   34  0.001  0.000  0.012  0.013
   35  0.005  0.000  0.000  0.005
   36  0.003  0.000  0.002  0.005
   37  0.000  0.000  0.000  0.000
tot    0.142  0.015  0.637  0.794
 
band    15 # energy   -5.00829973 # occ.  2.00000000
 
ion      s      p      d    tot
    1  0.004  0.000  0.029  0.033
    2  0.004  0.000  0.013  0.017
    3  0.004  0.000  0.013  0.017
    4  0.004  0.000  0.013  0.017
    5  0.001  0.000  0.005  0.006
    6  0.004  0.000  0.013  0.017
    7  0.004  0.000  0.013  0.017
    8  0.004  0.000  0.013  0.017
    9  0.009  0.000  0.004  0.014
   10  0.004  0.000  0.041  0.045
   11  0.003  0.000  0.019  0.022
   12  0.004  0.000  0.042  0.046
   13  0.003  0.000  0.019  0.022
   14  0.003  0.000  0.019  0.022
   15  0.001  0.000  0.003  0.005
   16  0.004  0.000  0.042  0.046
   17  0.001  0.000  0.003  0.005
   18  0.001  0.000  0.003  0.005
   19  0.001  0.000  0.024  0.025
   20  0.001  0.001  0.008  0.009
   21  0.001  0.001  0.008  0.009
   22  0.002  0.000  0.022  0.024
   23  0.001  0.001  0.008  0.009
   24  0.002  0.000  0.022  0.024
   25  0.001  0.000  0.024  0.025
   26  0.001  0.000  0.024  0.025
   27  0.002  0.000  0.022  0.024
   28  0.015  0.000  0.024  0.039
   29  0.008  0.000  0.021  0.029
   30  0.008  0.000  0.021  0.029
   31  0.008  0.000  0.021  0.029
   32  0.008  0.000  0.021  0.029
   33  0.008  0.000  0.021  0.029
   34  0.008  0.000  0.021  0.029
   35  0.005  0.000  0.023  0.028
   36  0.002  0.000  0.001  0.003
   37  0.000  0.000  0.000  0.000
tot    0.143  0.008  0.642  0.792
 
band    16 # energy   -4.99863872 # occ.  2.00000000
 
ion      s      p      d    tot
    1  0.000  0.000  0.011  0.011
    2  0.003  0.000  0.005  0.008
    3  0.000  0.000  0.010  0.011
    4  0.002  0.000  0.006  0.008
    5  0.000  0.000  0.010  0.010
    6  0.004  0.001  0.007  0.012
    7  0.000  0.000  0.010  0.011
    8  0.004  0.001  0.006  0.012
    9  0.000  0.001  0.009  0.009
   10  0.000  0.001  0.041  0.042
   11  0.000  0.000  0.034  0.034
   12  0.013  0.000  0.028  0.041
   13  0.000  0.000  0.035  0.035
   14  0.000  0.000  0.029  0.030
   15  0.013  0.000  0.033  0.046
   16  0.011  0.000  0.030  0.041
   17  0.015  0.000  0.023  0.038
   18  0.000  0.000  0.099  0.099
   19  0.001  0.000  0.025  0.026
   20  0.000  0.000  0.029  0.029
   21  0.004  0.000  0.020  0.025
   22  0.008  0.000  0.018  0.026
   23  0.004  0.000  0.022  0.025
   24  0.000  0.000  0.039  0.039
   25  0.000  0.000  0.030  0.030
   26  0.001  0.000  0.024  0.025
   27  0.007  0.000  0.021  0.027
   28  0.000  0.000  0.013  0.013
   29  0.002  0.000  0.005  0.007
   30  0.003  0.001  0.005  0.009
   31  0.002  0.000  0.005  0.007
   32  0.000  0.000  0.006  0.007
   33  0.004  0.001  0.005  0.009
   34  0.000  0.000  0.006  0.007
   35  0.000  0.000  0.006  0.006
   36  0.000  0.000  0.001  0.001
   37  0.000  0.000  0.000  0.000
tot    0.100  0.011  0.708  0.819
 
band    17 # energy   -4.99863370 # occ.  2.00000000
 
ion      s      p      d    tot
    1  0.000  0.000  0.011  0.011
    2  0.002  0.001  0.010  0.012
    3  0.004  0.001  0.005  0.009
    4  0.002  0.001  0.009  0.013
    5  0.000  0.000  0.010  0.010
    6  0.000  0.000  0.008  0.009
    7  0.004  0.001  0.005  0.010
    8  0.000  0.000  0.009  0.009
    9  0.000  0.001  0.009  0.009
   10  0.015  0.000  0.025  0.041
   11  0.000  0.000  0.031  0.032
   12  0.003  0.001  0.038  0.042
   13  0.000  0.000  0.030  0.031
   14  0.000  0.000  0.036  0.037
   15  0.006  0.000  0.070  0.076
   16  0.005  0.000  0.036  0.042
   17  0.004  0.000  0.080  0.084
   18  0.018  0.000  0.005  0.023
   19  0.000  0.000  0.027  0.028
   20  0.005  0.000  0.019  0.024
   21  0.001  0.000  0.027  0.028
   22  0.002  0.000  0.034  0.036
   23  0.002  0.000  0.026  0.027
   24  0.010  0.000  0.012  0.022
   25  0.001  0.000  0.023  0.024
   26  0.000  0.000  0.028  0.028
   27  0.003  0.000  0.031  0.034
   28  0.000  0.000  0.013  0.013
   29  0.002  0.001  0.006  0.009
   30  0.000  0.000  0.006  0.006
   31  0.002  0.000  0.006  0.008
   32  0.003  0.001  0.004  0.008
   33  0.000  0.000  0.006  0.006
   34  0.004  0.001  0.005  0.009
   35  0.000  0.000  0.006  0.006
   36  0.000  0.000  0.001  0.001
   37  0.000  0.000  0.000  0.000
tot    0.100  0.011  0.708  0.819
 
band    18 # energy   -4.98919428 # occ.  2.00000000
 
ion      s      p      d    tot
    1  0.002  0.000  0.000  0.002
    2  0.000  0.000  0.009  0.010
    3  0.000  0.000  0.008  0.009
    4  0.000  0.000  0.009  0.010
    5  0.000  0.000  0.001  0.001
    6  0.000  0.000  0.009  0.009
    7  0.000  0.000  0.008  0.009
    8  0.000  0.000  0.009  0.009
    9  0.003  0.000  0.008  0.011
   10  0.001  0.000  0.026  0.027
   11  0.001  0.000  0.013  0.014
   12  0.001  0.000  0.023  0.024
   13  0.001  0.000  0.013  0.014
   14  0.001  0.000  0.012  0.013
   15  0.001  0.000  0.050  0.050
   16  0.001  0.000  0.023  0.024
   17  0.001  0.000  0.050  0.050
   18  0.000  0.000  0.050  0.050
   19  0.006  0.000  0.042  0.049
   20  0.004  0.000  0.021  0.025
   21  0.003  0.000  0.018  0.022
   22  0.001  0.000  0.070  0.071
   23  0.003  0.000  0.018  0.021
   24  0.000  0.000  0.073  0.073
   25  0.005  0.000  0.041  0.046
   26  0.006  0.000  0.042  0.048
   27  0.001  0.000  0.070  0.071
   28  0.002  0.001  0.006  0.008
   29  0.000  0.000  0.010  0.010
   30  0.000  0.000  0.009  0.010
   31  0.000  0.000  0.010  0.010
   32  0.000  0.000  0.009  0.010
   33  0.000  0.000  0.009  0.010
   34  0.000  0.000  0.009  0.010
   35  0.002  0.000  0.013  0.015
   36  0.001  0.000  0.000  0.002
   37  0.000  0.000  0.000  0.000
tot    0.047  0.007  0.791  0.845
 
band    19 # energy   -4.98853369 # occ.  2.00000000
 
ion      s      p      d    tot
    1  0.000  0.000  0.006  0.006
    2  0.002  0.000  0.007  0.008
    3  0.000  0.000  0.008  0.008
    4  0.002  0.000  0.006  0.008
    5  0.000  0.000  0.005  0.005
    6  0.002  0.000  0.005  0.007
    7  0.000  0.000  0.008  0.008
    8  0.002  0.000  0.005  0.007
    9  0.000  0.000  0.018  0.018
   10  0.000  0.000  0.034  0.034
   11  0.000  0.000  0.040  0.041
   12  0.000  0.000  0.015  0.015
   13  0.001  0.000  0.039  0.040
   14  0.002  0.000  0.009  0.012
   15  0.000  0.000  0.042  0.043
   16  0.000  0.000  0.014  0.014
   17  0.000  0.000  0.042  0.042
   18  0.002  0.000  0.030  0.032
   19  0.002  0.000  0.078  0.080
   20  0.000  0.000  0.052  0.052
   21  0.000  0.000  0.021  0.022
   22  0.003  0.000  0.060  0.063
   23  0.000  0.000  0.020  0.020
   24  0.013  0.000  0.026  0.039
   25  0.008  0.000  0.008  0.016
   26  0.002  0.000  0.076  0.078
   27  0.003  0.000  0.061  0.064
   28  0.000  0.000  0.005  0.005
   29  0.000  0.000  0.008  0.008
   30  0.002  0.000  0.004  0.006
   31  0.000  0.000  0.008  0.008
   32  0.000  0.000  0.008  0.009
   33  0.002  0.000  0.004  0.006
   34  0.000  0.000  0.008  0.009
   35  0.000  0.000  0.013  0.013
   36  0.000  0.000  0.001  0.001
   37  0.000  0.000  0.000  0.000
tot    0.048  0.007  0.793  0.847
 
band    20 # energy   -4.98847936 # occ.  2.00000000
 
ion      s      p      d    tot
    1  0.000  0.000  0.006  0.006
    2  0.000  0.000  0.006  0.006
    3  0.002  0.000  0.005  0.008
    4  0.000  0.000  0.006  0.006
    5  0.000  0.000  0.005  0.005
    6  0.001  0.000  0.008  0.009
    7  0.002  0.000  0.006  0.008
    8  0.001  0.000  0.008  0.009
    9  0.000  0.000  0.018  0.018
   10  0.000  0.000  0.006  0.006
   11  0.002  0.000  0.019  0.021
   12  0.000  0.000  0.028  0.028
   13  0.002  0.000  0.020  0.022
   14  0.000  0.000  0.051  0.051
   15  0.001  0.000  0.034  0.035
   16  0.000  0.000  0.029  0.029
   17  0.001  0.000  0.034  0.035
   18  0.000  0.000  0.046  0.046
   19  0.006  0.000  0.030  0.035
   20  0.000  0.001  0.008  0.008
   21  0.000  0.000  0.042  0.042
   22  0.009  0.000  0.039  0.048
   23  0.000  0.000  0.043  0.044
   24  0.000  0.000  0.071  0.071
   25  0.000  0.000  0.101  0.101
   26  0.005  0.000  0.032  0.037
   27  0.009  0.000  0.038  0.048
   28  0.000  0.000  0.005  0.005
   29  0.001  0.000  0.005  0.007
   30  0.000  0.000  0.010  0.010
   31  0.001  0.000  0.005  0.006
   32  0.001  0.000  0.005  0.006
   33  0.000  0.000  0.010  0.010
   34  0.001  0.000  0.005  0.006
   35  0.000  0.000  0.013  0.013
   36  0.000  0.000  0.001  0.001
   37  0.000  0.000  0.000  0.000
tot    0.048  0.007  0.793  0.847
 
band    21 # energy   -4.85482206 # occ.  2.00000000
 
ion      s      p      d    tot
    1  0.000  0.000  0.000  0.001
    2  0.000  0.000  0.005  0.005
    3  0.000  0.000  0.005  0.005
    4  0.000  0.000  0.005  0.005
    5  0.001  0.001  0.015  0.017
    6  0.000  0.000  0.005  0.005
    7  0.000  0.000  0.005  0.005
    8  0.000  0.000  0.005  0.005
    9  0.002  0.001  0.005  0.007
   10  0.000  0.000  0.012  0.012
   11  0.000  0.001  0.085  0.085
   12  0.000  0.000  0.012  0.012
   13  0.000  0.001  0.085  0.085
   14  0.000  0.001  0.084  0.085
   15  0.000  0.000  0.032  0.032
   16  0.000  0.000  0.012  0.012
   17  0.000  0.000  0.032  0.032
   18  0.000  0.000  0.032  0.032
   19  0.000  0.000  0.021  0.022
   20  0.002  0.000  0.066  0.068
   21  0.002  0.000  0.065  0.068
   22  0.002  0.000  0.018  0.021
   23  0.002  0.000  0.065  0.068
   24  0.002  0.000  0.018  0.021
   25  0.000  0.000  0.021  0.022
   26  0.000  0.000  0.021  0.022
   27  0.002  0.000  0.018  0.021
   28  0.004  0.001  0.001  0.006
   29  0.000  0.000  0.012  0.012
   30  0.000  0.000  0.012  0.012
   31  0.000  0.000  0.012  0.012
   32  0.000  0.000  0.012  0.012
   33  0.000  0.000  0.012  0.012
   34  0.000  0.000  0.012  0.012
   35  0.004  0.001  0.000  0.005
   36  0.000  0.000  0.002  0.003