PROCAR new format
# of k-points:   10         # of bands:  252         # of ions:   38

 k-point     1 :    0.00000000 0.00000000 0.00000000     weight = 0.01562500

band     1 # energy  -19.14239078 # occ.  2.00000000
 
ion      s      p      d    tot
    1  0.000  0.000  0.000  0.000
    2  0.000  0.000  0.000  0.000
    3  0.000  0.000  0.000  0.000
    4  0.000  0.000  0.000  0.000
    5  0.000  0.000  0.000  0.000
    6  0.000  0.000  0.000  0.000
    7  0.000  0.000  0.000  0.000
    8  0.000  0.000  0.000  0.000
    9  0.000  0.000  0.000  0.000
   10  0.000  0.000  0.000  0.000
   11  0.000  0.000  0.000  0.000
   12  0.000  0.000  0.000  0.000
   13  0.000  0.000  0.000  0.000
   14  0.000  0.000  0.000  0.000
   15  0.000  0.000  0.000  0.000
   16  0.000  0.000  0.000  0.000
   17  0.000  0.000  0.000  0.000
   18  0.000  0.000  0.000  0.000
   19  0.000  0.000  0.000  0.000
   20  0.000  0.000  0.000  0.000
   21  0.000  0.000  0.000  0.000
   22  0.000  0.000  0.000  0.000
   23  0.000  0.000  0.000  0.000
   24  0.000  0.000  0.000  0.000
   25  0.000  0.000  0.000  0.000
   26  0.000  0.000  0.000  0.000
   27  0.000  0.000  0.000  0.000
   28  0.000  0.000  0.000  0.000
   29  0.000  0.000  0.000  0.000
   30  0.000  0.000  0.000  0.000
   31  0.000  0.000  0.000  0.000
   32  0.000  0.000  0.000  0.000
   33  0.000  0.000  0.000  0.000
   34  0.000  0.000  0.000  0.000
   35  0.000  0.000  0.000  0.000
   36  0.010  0.013  0.021  0.045
   37  0.738  0.017  0.000  0.755
   38  0.118  0.024  0.000  0.143
tot    0.867  0.054  0.021  0.943
 
band     2 # energy   -8.45898932 # occ.  2.00000000
 
ion      s      p      d    tot
    1  0.007  0.001  0.000  0.007
    2  0.007  0.001  0.000  0.007
    3  0.007  0.001  0.000  0.007
    4  0.007  0.001  0.000  0.007
    5  0.007  0.001  0.000  0.007
    6  0.007  0.001  0.000  0.007
    7  0.007  0.001  0.000  0.007
    8  0.007  0.001  0.000  0.007
    9  0.007  0.001  0.000  0.007
   10  0.024  0.000  0.000  0.024
   11  0.024  0.000  0.000  0.024
   12  0.024  0.000  0.000  0.024
   13  0.024  0.000  0.000  0.024
   14  0.024  0.000  0.000  0.024
   15  0.024  0.000  0.000  0.024
   16  0.024  0.000  0.000  0.024
   17  0.024  0.000  0.000  0.024
   18  0.024  0.000  0.000  0.024
   19  0.024  0.000  0.000  0.024
   20  0.024  0.000  0.000  0.024
   21  0.024  0.000  0.000  0.024
   22  0.024  0.000  0.000  0.024
   23  0.024  0.000  0.000  0.024
   24  0.024  0.000  0.000  0.024
   25  0.024  0.000  0.000  0.024
   26  0.024  0.000  0.000  0.024
   27  0.024  0.000  0.000  0.024
   28  0.007  0.001  0.000  0.007
   29  0.006  0.001  0.000  0.007
   30  0.006  0.001  0.000  0.007
   31  0.006  0.001  0.000  0.007
   32  0.006  0.001  0.000  0.007
   33  0.006  0.001  0.000  0.007
   34  0.006  0.001  0.000  0.007
   35  0.006  0.001  0.000  0.007
   36  0.016  0.000  0.003  0.019
   37  0.000  0.014  0.000  0.015
   38  0.005  0.001  0.000  0.006
tot    0.563  0.030  0.004  0.597
 
band     3 # energy   -7.77898832 # occ.  2.00000000
 
ion      s      p      d    tot
    1  0.002  0.000  0.000  0.002
    2  0.002  0.000  0.000  0.002
    3  0.002  0.000  0.000  0.002
    4  0.002  0.000  0.000  0.002
    5  0.001  0.000  0.000  0.002
    6  0.002  0.000  0.000  0.002
    7  0.002  0.000  0.000  0.002
    8  0.002  0.000  0.000  0.002
    9  0.002  0.000  0.000  0.002
   10  0.002  0.000  0.000  0.003
   11  0.002  0.000  0.000  0.002
   12  0.002  0.000  0.000  0.003
   13  0.002  0.000  0.000  0.002
   14  0.002  0.000  0.000  0.002
   15  0.003  0.000  0.000  0.003
   16  0.002  0.000  0.000  0.003
   17  0.003  0.000  0.000  0.003
   18  0.003  0.000  0.000  0.003
   19  0.000  0.000  0.000  0.000
   20  0.000  0.001  0.001  0.002
   21  0.000  0.001  0.001  0.002
   22  0.000  0.000  0.000  0.000
   23  0.000  0.001  0.001  0.002
   24  0.000  0.000  0.000  0.000
   25  0.000  0.000  0.000  0.000
   26  0.000  0.000  0.000  0.000
   27  0.000  0.000  0.000  0.000
   28  0.000  0.000  0.000  0.000
   29  0.000  0.000  0.000  0.000
   30  0.000  0.000  0.000  0.000
   31  0.000  0.000  0.000  0.000
   32  0.000  0.000  0.000  0.000
   33  0.000  0.000  0.000  0.000
   34  0.000  0.000  0.000  0.000
   35  0.000  0.000  0.000  0.000
   36  0.059  0.036  0.144  0.239
   37  0.023  0.474  0.000  0.497
   38  0.159  0.016  0.000  0.176
tot    0.282  0.532  0.148  0.962
 
band     4 # energy   -7.09965640 # occ.  2.00000000
 
ion      s      p      d    tot
    1  0.017  0.001  0.001  0.018
    2  0.017  0.001  0.001  0.018
    3  0.017  0.001  0.001  0.018
    4  0.017  0.001  0.001  0.018
    5  0.017  0.001  0.001  0.018
    6  0.017  0.001  0.001  0.018
    7  0.017  0.001  0.001  0.018
    8  0.017  0.001  0.001  0.018
    9  0.017  0.001  0.001  0.018
   10  0.008  0.002  0.000  0.011
   11  0.008  0.002  0.000  0.011
   12  0.008  0.002  0.000  0.011
   13  0.008  0.002  0.000  0.011
   14  0.008  0.002  0.000  0.011
   15  0.007  0.002  0.001  0.010
   16  0.008  0.002  0.000  0.011
   17  0.007  0.002  0.001  0.010
   18  0.007  0.002  0.001  0.010
   19  0.013  0.002  0.001  0.016
   20  0.008  0.002  0.001  0.011
   21  0.008  0.002  0.001  0.011
   22  0.013  0.002  0.001  0.016
   23  0.008  0.002  0.001  0.011
   24  0.013  0.002  0.001  0.016
   25  0.013  0.002  0.001  0.016
   26  0.013  0.002  0.001  0.016
   27  0.013  0.002  0.001  0.016
   28  0.020  0.001  0.000  0.022
   29  0.018  0.001  0.001  0.019
   30  0.018  0.001  0.001  0.019
   31  0.018  0.001  0.001  0.019
   32  0.018  0.001  0.001  0.019
   33  0.018  0.001  0.001  0.019
   34  0.018  0.001  0.001  0.019
   35  0.020  0.001  0.000  0.022
   36  0.007  0.006  0.020  0.033
   37  0.002  0.022  0.000  0.024
   38  0.007  0.001  0.000  0.007
tot    0.489  0.081  0.039  0.608
 
band     5 # energy   -5.54469290 # occ.  2.00000000
 
ion      s      p      d    tot
    1  0.016  0.000  0.006  0.022
    2  0.015  0.000  0.006  0.021
    3  0.015  0.000  0.006  0.021
    4  0.015  0.000  0.006  0.021
    5  0.007  0.000  0.007  0.014
    6  0.015  0.000  0.006  0.021
    7  0.015  0.000  0.006  0.021
    8  0.015  0.000  0.006  0.021
    9  0.025  0.000  0.004  0.029
   10  0.003  0.003  0.003  0.010
   11  0.012  0.005  0.001  0.018
   12  0.003  0.003  0.003  0.010
   13  0.012  0.005  0.001  0.018
   14  0.012  0.005  0.001  0.018
   15  0.000  0.003  0.004  0.007
   16  0.003  0.003  0.003  0.010
   17  0.000  0.003  0.004  0.007
   18  0.000  0.003  0.004  0.007
   19  0.001  0.003  0.004  0.008
   20  0.016  0.004  0.002  0.023
   21  0.016  0.004  0.002  0.023
   22  0.001  0.004  0.003  0.008
   23  0.016  0.004  0.002  0.023
   24  0.001  0.004  0.003  0.008
   25  0.001  0.003  0.004  0.008
   26  0.001  0.003  0.004  0.008
   27  0.001  0.004  0.003  0.008
   28  0.020  0.000  0.005  0.025
   29  0.016  0.000  0.007  0.023
   30  0.016  0.000  0.007  0.023
   31  0.016  0.000  0.007  0.023
   32  0.016  0.000  0.007  0.023
   33  0.016  0.000  0.007  0.023
   34  0.016  0.000  0.007  0.023
   35  0.025  0.000  0.005  0.030
   36  0.007  0.002  0.019  0.028
   37  0.000  0.000  0.000  0.000
   38  0.000  0.000  0.000  0.000
tot    0.385  0.071  0.178  0.634
 
band     6 # energy   -5.47254397 # occ.  2.00000000
 
ion      s      p      d    tot
    1  0.000  0.003  0.006  0.009
    2  0.009  0.002  0.002  0.014
    3  0.005  0.002  0.002  0.008
    4  0.009  0.002  0.002  0.014
    5  0.000  0.001  0.003  0.004
    6  0.001  0.001  0.002  0.004
    7  0.004  0.001  0.002  0.008
    8  0.001  0.001  0.002  0.004
    9  0.000  0.000  0.004  0.004
   10  0.061  0.003  0.005  0.069
   11  0.002  0.010  0.003  0.015
   12  0.016  0.005  0.010  0.031
   13  0.003  0.010  0.003  0.015
   14  0.010  0.000  0.006  0.017
   15  0.005  0.002  0.011  0.018
   16  0.015  0.005  0.011  0.030
   17  0.005  0.002  0.010  0.018
   18  0.021  0.004  0.002  0.027
   19  0.011  0.008  0.006  0.026
   20  0.050  0.005  0.004  0.059
   21  0.013  0.001  0.014  0.028
   22  0.000  0.007  0.005  0.012
   23  0.012  0.001  0.014  0.027
   24  0.000  0.001  0.005  0.006
   25  0.046  0.001  0.006  0.054
   26  0.012  0.008  0.006  0.026
   27  0.000  0.008  0.005  0.012
   28  0.000  0.003  0.005  0.008
   29  0.009  0.002  0.003  0.014
   30  0.008  0.002  0.003  0.012
   31  0.009  0.002  0.003  0.014
   32  0.000  0.001  0.003  0.004
   33  0.008  0.002  0.003  0.012
   34  0.000  0.001  0.003  0.004
   35  0.000  0.000  0.002  0.003
   36  0.000  0.003  0.015  0.018
   37  0.000  0.000  0.000  0.000
   38  0.000  0.000  0.000  0.000
tot    0.344  0.114  0.188  0.647
 
band     7 # energy   -5.47245613 # occ.  2.00000000
 
ion      s      p      d    tot
    1  0.000  0.003  0.006  0.009
    2  0.000  0.001  0.002  0.003
    3  0.005  0.002  0.002  0.009
    4  0.001  0.001  0.002  0.003
    5  0.000  0.001  0.003  0.004
    6  0.009  0.002  0.002  0.013
    7  0.005  0.002  0.002  0.009
    8  0.009  0.002  0.002  0.014
    9  0.000  0.000  0.004  0.004
   10  0.000  0.005  0.012  0.017
   11  0.008  0.003  0.005  0.016
   12  0.045  0.004  0.007  0.055
   13  0.007  0.004  0.005  0.016
   14  0.000  0.013  0.002  0.015
   15  0.016  0.003  0.005  0.024
   16  0.046  0.004  0.007  0.056
   17  0.016  0.003  0.005  0.024
   18  0.000  0.002  0.013  0.015
   19  0.035  0.004  0.006  0.045
   20  0.000  0.000  0.017  0.017
   21  0.037  0.003  0.007  0.048
   22  0.000  0.003  0.005  0.008
   23  0.038  0.003  0.007  0.049
   24  0.000  0.010  0.005  0.014
   25  0.000  0.011  0.006  0.017
   26  0.034  0.004  0.006  0.044
   27  0.000  0.003  0.005  0.008
   28  0.000  0.003  0.005  0.008
   29  0.002  0.001  0.003  0.006
   30  0.003  0.002  0.003  0.008
   31  0.002  0.001  0.003  0.006
   32  0.011  0.003  0.003  0.016
   33  0.003  0.002  0.003  0.008
   34  0.011  0.003  0.003  0.016
   35  0.000  0.000  0.002  0.003
   36  0.000  0.003  0.015  0.018
   37  0.000  0.000  0.000  0.000
   38  0.000  0.000  0.000  0.000
tot    0.344  0.114  0.188  0.647
 
band     8 # energy   -5.45173792 # occ.  2.00000000
 
ion      s      p      d    tot
    1  0.022  0.003  0.001  0.026
    2  0.000  0.002  0.004  0.006
    3  0.000  0.002  0.004  0.006
    4  0.000  0.002  0.004  0.006
    5  0.000  0.000  0.000  0.001
    6  0.000  0.002  0.004  0.006
    7  0.000  0.002  0.004  0.006
    8  0.000  0.002  0.004  0.006
    9  0.010  0.002  0.001  0.013
   10  0.028  0.005  0.007  0.040
   11  0.004  0.001  0.011  0.016
   12  0.029  0.005  0.007  0.041
   13  0.004  0.001  0.011  0.016
   14  0.003  0.000  0.011  0.015
   15  0.014  0.009  0.003  0.025
   16  0.029  0.005  0.007  0.041
   17  0.014  0.009  0.003  0.026
   18  0.016  0.008  0.003  0.028
   19  0.020  0.009  0.002  0.031
   20  0.000  0.002  0.010  0.012
   21  0.000  0.002  0.010  0.012
   22  0.027  0.003  0.008  0.038
   23  0.000  0.002  0.010  0.012
   24  0.024  0.003  0.008  0.036
   25  0.019  0.009  0.002  0.030
   26  0.020  0.009  0.002  0.031
   27  0.027  0.003  0.008  0.039
   28  0.019  0.002  0.000  0.021
   29  0.000  0.002  0.004  0.006
   30  0.000  0.002  0.004  0.006
   31  0.000  0.002  0.004  0.006
   32  0.000  0.002  0.004  0.006
   33  0.000  0.002  0.004  0.006
   34  0.000  0.002  0.004  0.006
   35  0.013  0.003  0.001  0.017
   36  0.000  0.000  0.000  0.000
   37  0.000  0.000  0.000  0.000
   38  0.000  0.000  0.000  0.000
tot    0.346  0.116  0.176  0.638
 
band     9 # energy   -5.45041314 # occ.  2.00000000
 
ion      s      p      d    tot
    1  0.000  0.000  0.002  0.003
    2  0.010  0.002  0.003  0.015
    3  0.005  0.002  0.002  0.009
    4  0.010  0.002  0.003  0.015
    5  0.000  0.002  0.005  0.007
    6  0.001  0.001  0.002  0.004
    7  0.005  0.002  0.002  0.008
    8  0.001  0.001  0.002  0.004
    9  0.000  0.003  0.004  0.008
   10  0.000  0.008  0.006  0.015
   11  0.040  0.004  0.006  0.050
   12  0.001  0.004  0.005  0.009
   13  0.039  0.004  0.006  0.049
   14  0.000  0.000  0.017  0.017
   15  0.030  0.003  0.006  0.040
   16  0.001  0.003  0.005  0.009
   17  0.029  0.004  0.006  0.039
   18  0.000  0.012  0.005  0.016
   19  0.013  0.004  0.005  0.021
   20  0.000  0.014  0.001  0.015
   21  0.011  0.004  0.005  0.020
   22  0.046  0.004  0.007  0.057
   23  0.012  0.003  0.005  0.020
   24  0.000  0.004  0.014  0.018
   25  0.000  0.003  0.012  0.015
   26  0.012  0.003  0.005  0.021
   27  0.048  0.004  0.006  0.058
   28  0.000  0.000  0.003  0.004
   29  0.009  0.002  0.002  0.014
   30  0.006  0.002  0.003  0.011
   31  0.009  0.002  0.002  0.014
   32  0.000  0.001  0.002  0.004
   33  0.006  0.002  0.003  0.011
   34  0.000  0.001  0.002  0.003
   35  0.000  0.003  0.006  0.009
   36  0.000  0.003  0.009  0.012
   37  0.000  0.000  0.000  0.000
   38  0.000  0.000  0.000  0.000
tot    0.343  0.117  0.182  0.642
 
band    10 # energy   -5.45032656 # occ.  2.00000000
 
ion      s      p      d    tot
    1  0.000  0.000  0.002  0.003
    2  0.000  0.001  0.002  0.003
    3  0.005  0.002  0.002  0.009
    4  0.001  0.001  0.002  0.004
    5  0.000  0.002  0.005  0.007
    6  0.009  0.002  0.002  0.014
    7  0.006  0.002  0.002  0.010
    8  0.009  0.002  0.002  0.014
    9  0.000  0.003  0.004  0.008
   10  0.001  0.002  0.004  0.007
   11  0.012  0.001  0.014  0.027
   12  0.000  0.007  0.006  0.012
   13  0.014  0.001  0.013  0.028
   14  0.053  0.005  0.003  0.061
   15  0.010  0.009  0.005  0.024
   16  0.000  0.007  0.006  0.013
   17  0.011  0.009  0.005  0.025
   18  0.039  0.001  0.006  0.046
   19  0.004  0.003  0.010  0.017
   20  0.015  0.000  0.006  0.022
   21  0.004  0.010  0.003  0.017
   22  0.015  0.004  0.011  0.031
   23  0.004  0.011  0.003  0.017
   24  0.065  0.004  0.004  0.072
   25  0.018  0.003  0.002  0.024
   26  0.004  0.003  0.010  0.017
   27  0.014  0.004  0.011  0.029
   28  0.000  0.000  0.003  0.004
   29  0.001  0.001  0.003  0.005
   30  0.004  0.001  0.002  0.008
   31  0.001  0.001  0.003  0.005
   32  0.010  0.003  0.003  0.015
   33  0.005  0.001  0.002  0.008
   34  0.010  0.003  0.003  0.015
   35  0.000  0.003  0.006  0.009
   36  0.000  0.003  0.008  0.011
   37  0.000  0.000  0.000  0.000
   38  0.000  0.000  0.000  0.000
tot    0.343  0.117  0.182  0.642
 
band    11 # energy   -5.35779139 # occ.  2.00000000
 
ion      s      p      d    tot
    1  0.000  0.001  0.001  0.002
    2  0.002  0.002  0.006  0.010
    3  0.002  0.002  0.006  0.010
    4  0.002  0.002  0.006  0.010
    5  0.039  0.004  0.000  0.043
    6  0.002  0.002  0.006  0.010
    7  0.002  0.002  0.006  0.010
    8  0.002  0.002  0.006  0.010
    9  0.004  0.002  0.003  0.010
   10  0.004  0.005  0.008  0.017
   11  0.023  0.009  0.004  0.037
   12  0.004  0.005  0.008  0.017
   13  0.023  0.009  0.004  0.037
   14  0.023  0.009  0.004  0.037
   15  0.025  0.001  0.012  0.039
   16  0.004  0.005  0.008  0.017
   17  0.025  0.001  0.012  0.039
   18  0.025  0.001  0.012  0.039
   19  0.009  0.001  0.009  0.020
   20  0.018  0.004  0.006  0.029
   21  0.018  0.004  0.006  0.029
   22  0.006  0.006  0.005  0.017
   23  0.018  0.004  0.006  0.029
   24  0.006  0.006  0.005  0.017
   25  0.009  0.001  0.009  0.020
   26  0.009  0.001  0.009  0.020
   27  0.006  0.006  0.005  0.017
   28  0.000  0.001  0.003  0.003
   29  0.002  0.001  0.003  0.006
   30  0.002  0.001  0.003  0.006
   31  0.002  0.001  0.003  0.006
   32  0.002  0.001  0.003  0.006
   33  0.002  0.001  0.003  0.006
   34  0.002  0.001  0.003  0.006
   35  0.000  0.000  0.001  0.002
   36  0.017  0.006  0.003  0.026
   37  0.001  0.003  0.000  0.003
   38  0.001  0.000  0.000  0.001
tot    0.344  0.115  0.199  0.658
 
band    12 # energy   -4.72698002 # occ.  2.00000000
 
ion      s      p      d    tot
    1  0.000  0.004  0.010  0.014
    2  0.018  0.003  0.005  0.026
    3  0.001  0.001  0.005  0.007
    4  0.018  0.003  0.005  0.026
    5  0.000  0.000  0.010  0.010
    6  0.012  0.003  0.005  0.020
    7  0.001  0.002  0.005  0.007
    8  0.012  0.003  0.005  0.020
    9  0.000  0.005  0.008  0.013
   10  0.000  0.004  0.020  0.024
   11  0.003  0.002  0.010  0.015
   12  0.006  0.002  0.009  0.017
   13  0.003  0.002  0.010  0.015
   14  0.000  0.002  0.014  0.016
   15  0.018  0.004  0.009  0.031
   16  0.006  0.002  0.010  0.017
   17  0.018  0.004  0.009  0.031
   18  0.000  0.000  0.022  0.022
   19  0.011  0.004  0.010  0.025
   20  0.000  0.003  0.016  0.019
   21  0.000  0.001  0.012  0.013
   22  0.009  0.003  0.009  0.021
   23  0.000  0.001  0.012  0.013
   24  0.000  0.002  0.028  0.030
   25  0.000  0.000  0.015  0.016
   26  0.011  0.004  0.010  0.025
   27  0.009  0.003  0.009  0.021
   28  0.000  0.004  0.007  0.011
   29  0.021  0.003  0.007  0.031
   30  0.000  0.002  0.008  0.010
   31  0.021  0.003  0.007  0.031
   32  0.017  0.002  0.007  0.026
   33  0.000  0.002  0.008  0.010
   34  0.017  0.002  0.007  0.026
   35  0.000  0.005  0.009  0.015
   36  0.000  0.000  0.034  0.034
   37  0.000  0.000  0.000  0.000
   38  0.000  0.000  0.000  0.000
tot    0.229  0.092  0.386  0.708
 
band    13 # energy   -4.72695783 # occ.  2.00000000
 
ion      s      p      d    tot
    1  0.000  0.004  0.010  0.014
    2  0.002  0.002  0.005  0.009
    3  0.020  0.004  0.005  0.028
    4  0.003  0.002  0.005  0.009
    5  0.000  0.000  0.010  0.010
    6  0.008  0.002  0.005  0.015
    7  0.020  0.004  0.005  0.028
    8  0.008  0.002  0.005  0.015
    9  0.000  0.005  0.008  0.013
   10  0.008  0.001  0.006  0.015
   11  0.001  0.002  0.013  0.016
   12  0.002  0.003  0.017  0.022
   13  0.001  0.002  0.013  0.016
   14  0.004  0.002  0.008  0.014
   15  0.006  0.001  0.018  0.025
   16  0.002  0.003  0.017  0.022
   17  0.006  0.001  0.018  0.025
   18  0.024  0.005  0.005  0.034
   19  0.004  0.001  0.014  0.019
   20  0.000  0.001  0.010  0.011
   21  0.000  0.002  0.015  0.017
   22  0.003  0.002  0.022  0.027
   23  0.000  0.002  0.015  0.017
   24  0.012  0.003  0.003  0.018
   25  0.014  0.006  0.008  0.028
   26  0.004  0.001  0.014  0.019
   27  0.003  0.002  0.021  0.027
   28  0.000  0.004  0.007  0.011
   29  0.004  0.002  0.008  0.014
   30  0.025  0.003  0.007  0.035
   31  0.004  0.002  0.008  0.014
   32  0.008  0.003  0.007  0.018
   33  0.025  0.003  0.007  0.035
   34  0.008  0.003  0.007  0.018
   35  0.000  0.005  0.009  0.015
   36  0.000  0.000  0.034  0.034
   37  0.000  0.000  0.000  0.000
   38  0.000  0.000  0.000  0.000
tot    0.229  0.092  0.386  0.708
 
band    14 # energy   -4.71233540 # occ.  2.00000000
 
ion      s      p      d    tot
    1  0.004  0.001  0.010  0.014
    2  0.005  0.001  0.009  0.015
    3  0.005  0.001  0.009  0.014
    4  0.005  0.001  0.009  0.015
    5  0.002  0.001  0.009  0.012
    6  0.005  0.001  0.009  0.015
    7  0.005  0.001  0.009  0.014
    8  0.005  0.001  0.009  0.015
    9  0.011  0.000  0.008  0.019
   10  0.008  0.000  0.025  0.033
   11  0.008  0.000  0.022  0.030
   12  0.008  0.000  0.025  0.033
   13  0.008  0.000  0.022  0.030
   14  0.008  0.000  0.022  0.030
   15  0.004  0.000  0.023  0.027
   16  0.008  0.000  0.025  0.033
   17  0.004  0.000  0.023  0.027
   18  0.004  0.000  0.023  0.027
   19  0.006  0.000  0.021  0.027
   20  0.009  0.000  0.025  0.034
   21  0.009  0.000  0.025  0.034
   22  0.004  0.000  0.021  0.025
   23  0.009  0.000  0.025  0.034
   24  0.004  0.000  0.021  0.025
   25  0.006  0.000  0.021  0.027
   26  0.006  0.000  0.021  0.027
   27  0.004  0.000  0.021  0.025
   28  0.003  0.001  0.007  0.011
   29  0.004  0.000  0.008  0.013
   30  0.004  0.000  0.008  0.013
   31  0.004  0.000  0.008  0.013
   32  0.004  0.000  0.008  0.013
   33  0.004  0.000  0.008  0.013
   34  0.004  0.000  0.008  0.013
   35  0.008  0.000  0.007  0.015
   36  0.003  0.003  0.015  0.020
   37  0.000  0.001  0.000  0.001
   38  0.000  0.000  0.000  0.000
tot    0.201  0.014  0.569  0.784
 
band    15 # energy   -4.69074343 # occ.  2.00000000
 
ion      s      p      d    tot
    1  0.034  0.003  0.000  0.038
    2  0.000  0.003  0.010  0.013
    3  0.000  0.003  0.010  0.013
    4  0.000  0.003  0.010  0.013
    5  0.000  0.000  0.000  0.001
    6  0.000  0.003  0.010  0.013
    7  0.000  0.003  0.010  0.013
    8  0.000  0.003  0.010  0.013
    9  0.030  0.004  0.001  0.034
   10  0.008  0.004  0.011  0.022
   11  0.001  0.000  0.015  0.016
   12  0.008  0.004  0.010  0.022
   13  0.001  0.000  0.015  0.016
   14  0.001  0.000  0.015  0.016
   15  0.007  0.003  0.018  0.028
   16  0.008  0.004  0.010  0.022
   17  0.007  0.003  0.018  0.028
   18  0.007  0.003  0.018  0.028
   19  0.005  0.004  0.017  0.026
   20  0.000  0.000  0.014  0.015
   21  0.000  0.000  0.014  0.015
   22  0.012  0.004  0.010  0.026
   23  0.000  0.000  0.014  0.015
   24  0.012  0.004  0.010  0.026
   25  0.005  0.004  0.017  0.026
   26  0.005  0.004  0.017  0.026
   27  0.012  0.004  0.010  0.026
   28  0.037  0.003  0.000  0.040
   29  0.000  0.003  0.010  0.013
   30  0.000  0.003  0.010  0.013
   31  0.000  0.003  0.010  0.013
   32  0.000  0.003  0.010  0.013
   33  0.000  0.003  0.010  0.013
   34  0.000  0.003  0.010  0.013
   35  0.028  0.004  0.001  0.033
   36  0.000  0.000  0.000  0.000
   37  0.000  0.000  0.000  0.000
   38  0.000  0.000  0.000  0.000
tot    0.229  0.093  0.382  0.704
 
band    16 # energy   -4.67641334 # occ.  2.00000000
 
ion      s      p      d    tot
    1  0.000  0.003  0.010  0.012
    2  0.020  0.004  0.006  0.029
    3  0.001  0.002  0.005  0.008
    4  0.020  0.004  0.006  0.029
    5  0.000  0.006  0.010  0.016
    6  0.012  0.003  0.006  0.021
    7  0.001  0.002  0.005  0.008
    8  0.012  0.003  0.006  0.021
    9  0.000  0.001  0.014  0.014
   10  0.015  0.005  0.009  0.030
   11  0.005  0.002  0.023  0.030
   12  0.004  0.001  0.016  0.021
   13  0.004  0.002  0.023  0.030
   14  0.017  0.004  0.005  0.026
   15  0.000  0.003  0.016  0.019
   16  0.004  0.001  0.016  0.021
   17  0.000  0.003  0.016  0.019
   18  0.000  0.000  0.009  0.009
   19  0.001  0.003  0.017  0.020
   20  0.022  0.005  0.004  0.031
   21  0.005  0.002  0.023  0.031
   22  0.002  0.001  0.013  0.017
   23  0.006  0.002  0.023  0.031
   24  0.008  0.003  0.009  0.021
   25  0.003  0.000  0.007  0.010
   26  0.001  0.003  0.017  0.021
   27  0.002  0.002  0.013  0.017
   28  0.000  0.002  0.011  0.013
   29  0.015  0.003  0.006  0.025
   30  0.000  0.001  0.005  0.006
   31  0.015  0.003  0.006  0.025
   32  0.011  0.003  0.006  0.020
   33  0.000  0.001  0.005  0.006
   34  0.011  0.003  0.006  0.021
   35  0.000  0.001  0.009  0.010
   36  0.000  0.009  0.020  0.030
   37  0.000  0.000  0.000  0.000
   38  0.000  0.000  0.000  0.000
tot    0.220  0.096  0.401  0.717
 
band    17 # energy   -4.67636278 # occ.  2.00000000
 
ion      s      p      d    tot
    1  0.000  0.003  0.010  0.012
    2  0.002  0.002  0.006  0.009
    3  0.021  0.004  0.006  0.031
    4  0.002  0.002  0.006  0.010
    5  0.000  0.006  0.010  0.016
    6  0.010  0.003  0.005  0.018
    7  0.021  0.004  0.006  0.031
    8  0.010  0.003  0.005  0.018
    9  0.000  0.001  0.014  0.014
   10  0.000  0.000  0.018  0.018
   11  0.013  0.003  0.011  0.027
   12  0.012  0.004  0.011  0.027
   13  0.013  0.003  0.011  0.027
   14  0.000  0.002  0.029  0.031
   15  0.000  0.001  0.011  0.013
   16  0.011  0.004  0.012  0.027
   17  0.000  0.001  0.011  0.012
   18  0.000  0.004  0.019  0.022
   19  0.002  0.001  0.010  0.014
   20  0.000  0.001  0.029  0.030
   21  0.017  0.004  0.010  0.031
   22  0.006  0.003  0.010  0.019
   23  0.016  0.004  0.011  0.031
   24  0.000  0.001  0.015  0.016
   25  0.000  0.004  0.020  0.024
   26  0.002  0.001  0.010  0.014
   27  0.006  0.002  0.011  0.019
   28  0.000  0.002  0.011  0.013
   29  0.002  0.002  0.005  0.009
   30  0.018  0.004  0.007  0.028
   31  0.003  0.002  0.005  0.010
   32  0.007  0.002  0.005  0.014
   33  0.017  0.004  0.007  0.028
   34  0.006  0.002  0.005  0.014
   35  0.000  0.001  0.009  0.010
   36  0.000  0.009  0.020  0.030
   37  0.000  0.000  0.000  0.000
   38  0.000  0.000  0.000  0.000
tot    0.220  0.096  0.401  0.717
 
band    18 # energy   -4.51223895 # occ.  2.00000000
 
ion      s      p      d    tot
    1  0.015  0.001  0.000  0.017
    2  0.000  0.003  0.012  0.015
    3  0.000  0.003  0.012  0.015
    4  0.000  0.003  0.012  0.015
    5  0.043  0.004  0.000  0.047
    6  0.000  0.003  0.012  0.015
    7  0.000  0.003  0.012  0.015
    8  0.000  0.003  0.012  0.015
    9  0.006  0.001  0.000  0.007
   10  0.001  0.001  0.029  0.030
   11  0.004  0.005  0.022  0.031
   12  0.001  0.001  0.029  0.030
   13  0.004  0.005  0.022  0.031
   14  0.004  0.005  0.022  0.031
   15  0.002  0.001  0.007  0.011
   16  0.001  0.001  0.029  0.030
   17  0.002  0.001  0.007  0.011
   18  0.002  0.001  0.007  0.011
   19  0.009  0.001  0.023  0.033
   20  0.014  0.004  0.004  0.022
   21  0.014  0.004  0.004  0.022
   22  0.002  0.002  0.018  0.022
   23  0.014  0.004  0.004  0.022
   24  0.002  0.002  0.018  0.022
   25  0.009  0.001  0.023  0.033
   26  0.009  0.001  0.023  0.033
   27  0.002  0.002  0.018  0.022
   28  0.003  0.001  0.004  0.009
   29  0.001  0.002  0.010  0.013
   30  0.001  0.002  0.010  0.013
   31  0.001  0.002  0.010  0.013
   32  0.001  0.002  0.010  0.013
   33  0.001  0.002  0.010  0.013
   34  0.001  0.002  0.010  0.013
   35  0.005  0.001  0.001  0.007
   36  0.035  0.012  0.003  0.051
   37  0.001  0.003  0.000  0.003
   38  0.001  0.000  0.000  0.001
tot    0.211  0.093  0.449  0.754
 
band    19 # energy   -4.08106403 # occ.  2.00000000
 
ion      s      p      d    tot
    1  0.000  0.001  0.028  0.029
    2  0.014  0.001  0.008  0.024
    3  0.006  0.001  0.008  0.014
    4  0.014  0.001  0.008  0.024
    5  0.000  0.001  0.015  0.016
    6  0.002  0.001  0.008  0.011
    7  0.005  0.001  0.008  0.014
    8  0.002  0.001  0.008  0.011
    9  0.000  0.003  0.003  0.006
   10  0.000  0.000  0.059  0.059
   11  0.000  0.003  0.016  0.019
   12  0.000  0.000  0.018  0.018
   13  0.000  0.003  0.016  0.019
   14  0.000  0.000  0.009  0.009
   15  0.000  0.005  0.015  0.020
   16  0.000  0.000  0.017  0.018
   17  0.000  0.005  0.015  0.020
   18  0.000  0.000  0.023  0.023
   19  0.003  0.004  0.013  0.019
   20  0.000  0.000  0.060  0.060
   21  0.000  0.000  0.024  0.025
   22  0.002  0.002  0.016  0.020
   23  0.000  0.000  0.024  0.024
   24  0.000  0.000  0.025  0.025
   25  0.000  0.000  0.013  0.013
   26  0.003  0.004  0.013  0.019
   27  0.002  0.002  0.016  0.020
   28  0.000  0.002  0.002  0.004
   29  0.008  0.000  0.015  0.023
   30  0.001  0.001  0.015  0.016
   31  0.008  0.000  0.015  0.024
   32  0.013  0.000  0.015  0.028
   33  0.001  0.001  0.015  0.016
   34  0.013  0.000  0.015  0.028
   35  0.000  0.001  0.012  0.013
   36  0.000  0.000  0.071  0.071
   37  0.000  0.008  0.000  0.008
   38  0.000  0.000  0.000  0.000
tot    0.098  0.053  0.658  0.809
 
band    20 # energy   -4.08101176 # occ.  2.00000000
 
ion      s      p      d    tot
    1  0.000  0.001  0.028  0.029
    2  0.000  0.001  0.008  0.009
    3  0.009  0.001  0.008  0.018
    4  0.000  0.001  0.008  0.009
    5  0.000  0.001  0.015  0.016
    6  0.013  0.001  0.008  0.022
    7  0.009  0.001  0.008  0.019
    8  0.013  0.001  0.008  0.022
    9  0.000  0.003  0.003  0.006
   10  0.000  0.000  0.004  0.004
   11  0.000  0.001  0.011  0.012
   12  0.000  0.000  0.045  0.045
   13  0.000  0.001  0.011  0.013
   14  0.000  0.004  0.018  0.022
   15  0.000  0.002  0.021  0.022
   16  0.000  0.000  0.046  0.046
   17  0.000  0.002  0.021  0.022
   18  0.000  0.006  0.012  0.019
   19  0.001  0.001  0.013  0.015
   20  0.000  0.000  0.012  0.013
   21  0.000  0.000  0.048  0.048
   22  0.001  0.001  0.022  0.023
   23  0.000  0.000  0.048  0.048
   24  0.003  0.003  0.013  0.018
   25  0.003  0.005  0.013  0.021
   26  0.001  0.001  0.013  0.015
   27  0.001  0.001  0.022  0.023
   28  0.000  0.002  0.002  0.004
   29  0.007  0.001  0.014  0.022
   30  0.014  0.000  0.015  0.029
   31  0.007  0.001  0.014  0.022
   32  0.001  0.001  0.015  0.017
   33  0.014  0.000  0.015  0.029
   34  0.001  0.001  0.015  0.017
   35  0.000  0.001  0.012  0.013
   36  0.000  0.000  0.071  0.071
   37  0.000  0.008  0.000  0.008
   38  0.000  0.000  0.000  0.000
tot    0.098  0.053  0.658  0.809
 
band    21 # energy   -3.99700423 # occ.  2.00000000
 
ion      s      p      d    tot
    1  0.000  0.002  0.003  0.005
    2  0.013  0.001  0.009  0.022
    3  0.005  0.001  0.008  0.013
    4  0.013  0.001  0.009  0.022
    5  0.000  0.002  0.013  0.015
    6  0.002  0.001  0.008  0.011
    7  0.005  0.001  0.008  0.014
    8  0.002  0.001  0.008  0.011
    9  0.000  0.000  0.030  0.030
   10  0.001  0.006  0.020  0.027
   11  0.000  0.001  0.032  0.032
   12  0.000  0.002  0.009  0.011
   13  0.000  0.001  0.032  0.033
   14  0.001  0.003  0.005  0.009
   15  0.000  0.000  0.029  0.029
   16  0.000  0.002  0.009  0.011