PROCAR new format
# of k-points:   10         # of bands:  252         # of ions:   37

 k-point     1 :    0.00000000 0.00000000 0.00000000     weight = 0.01562500

band     1 # energy  -14.01609197 # occ.  2.00000000
 
ion      s      p      d    tot
    1  0.000  0.000  0.000  0.000
    2  0.000  0.000  0.000  0.000
    3  0.000  0.000  0.000  0.000
    4  0.000  0.000  0.000  0.000
    5  0.000  0.000  0.000  0.000
    6  0.000  0.000  0.000  0.000
    7  0.000  0.000  0.000  0.000
    8  0.000  0.000  0.000  0.000
    9  0.000  0.000  0.000  0.000
   10  0.000  0.000  0.000  0.000
   11  0.000  0.000  0.000  0.000
   12  0.000  0.000  0.000  0.000
   13  0.000  0.000  0.000  0.000
   14  0.000  0.000  0.000  0.000
   15  0.000  0.000  0.000  0.000
   16  0.000  0.000  0.000  0.000
   17  0.000  0.000  0.000  0.000
   18  0.000  0.000  0.000  0.000
   19  0.000  0.000  0.000  0.000
   20  0.000  0.000  0.000  0.001
   21  0.000  0.000  0.000  0.001
   22  0.000  0.000  0.000  0.000
   23  0.000  0.000  0.000  0.001
   24  0.000  0.000  0.000  0.000
   25  0.000  0.000  0.000  0.000
   26  0.000  0.000  0.000  0.000
   27  0.000  0.000  0.000  0.000
   28  0.000  0.000  0.000  0.000
   29  0.000  0.000  0.000  0.000
   30  0.000  0.000  0.000  0.000
   31  0.000  0.000  0.000  0.000
   32  0.000  0.000  0.000  0.000
   33  0.000  0.000  0.000  0.000
   34  0.000  0.000  0.000  0.000
   35  0.000  0.000  0.000  0.000
   36  0.085  0.070  0.180  0.335
   37  0.599  0.031  0.000  0.629
tot    0.685  0.101  0.181  0.967
 
band     2 # energy   -6.33385035 # occ.  2.00000000
 
ion      s      p      d    tot
    1  0.005  0.001  0.000  0.006
    2  0.005  0.000  0.000  0.005
    3  0.005  0.000  0.000  0.005
    4  0.005  0.000  0.000  0.005
    5  0.005  0.000  0.000  0.005
    6  0.005  0.000  0.000  0.005
    7  0.005  0.000  0.000  0.005
    8  0.005  0.000  0.000  0.005
    9  0.005  0.000  0.000  0.005
   10  0.021  0.000  0.000  0.021
   11  0.021  0.000  0.000  0.022
   12  0.021  0.000  0.000  0.021
   13  0.021  0.000  0.000  0.022
   14  0.021  0.000  0.000  0.022
   15  0.020  0.000  0.000  0.021
   16  0.021  0.000  0.000  0.021
   17  0.020  0.000  0.000  0.021
   18  0.020  0.000  0.000  0.021
   19  0.022  0.000  0.001  0.023
   20  0.029  0.000  0.001  0.030
   21  0.029  0.000  0.001  0.030
   22  0.023  0.000  0.000  0.024
   23  0.029  0.000  0.001  0.030
   24  0.023  0.000  0.000  0.024
   25  0.022  0.000  0.001  0.023
   26  0.022  0.000  0.001  0.023
   27  0.023  0.000  0.000  0.024
   28  0.006  0.001  0.000  0.006
   29  0.007  0.001  0.000  0.008
   30  0.007  0.001  0.000  0.008
   31  0.007  0.001  0.000  0.008
   32  0.007  0.001  0.000  0.008
   33  0.007  0.001  0.000  0.008
   34  0.007  0.001  0.000  0.008
   35  0.006  0.001  0.000  0.006
   36  0.018  0.003  0.000  0.022
   37  0.002  0.001  0.000  0.003
tot    0.527  0.016  0.009  0.552
 
band     3 # energy   -5.47859565 # occ.  2.00000000
 
ion      s      p      d    tot
    1  0.008  0.000  0.001  0.010
    2  0.010  0.000  0.001  0.011
    3  0.010  0.000  0.001  0.011
    4  0.010  0.000  0.001  0.011
    5  0.010  0.001  0.000  0.011
    6  0.010  0.000  0.001  0.011
    7  0.010  0.000  0.001  0.011
    8  0.010  0.000  0.001  0.011
    9  0.011  0.001  0.000  0.012
   10  0.012  0.001  0.013  0.026
   11  0.013  0.001  0.011  0.024
   12  0.012  0.001  0.013  0.026
   13  0.013  0.001  0.011  0.024
   14  0.013  0.001  0.011  0.024
   15  0.016  0.001  0.009  0.026
   16  0.012  0.001  0.013  0.026
   17  0.016  0.001  0.009  0.026
   18  0.016  0.001  0.009  0.026
   19  0.005  0.001  0.010  0.016
   20  0.014  0.002  0.010  0.026
   21  0.014  0.002  0.010  0.026
   22  0.005  0.001  0.010  0.016
   23  0.014  0.002  0.010  0.026
   24  0.005  0.001  0.010  0.016
   25  0.005  0.001  0.010  0.016
   26  0.005  0.001  0.010  0.016
   27  0.005  0.001  0.010  0.016
   28  0.006  0.000  0.001  0.007
   29  0.009  0.001  0.003  0.013
   30  0.009  0.001  0.003  0.013
   31  0.009  0.001  0.003  0.013
   32  0.009  0.001  0.003  0.013
   33  0.009  0.001  0.003  0.013
   34  0.009  0.001  0.003  0.013
   35  0.005  0.000  0.001  0.006
   36  0.037  0.004  0.002  0.043
   37  0.004  0.002  0.000  0.006
tot    0.386  0.035  0.218  0.638
 
band     4 # energy   -5.26690799 # occ.  2.00000000
 
ion      s      p      d    tot
    1  0.002  0.000  0.003  0.005
    2  0.001  0.000  0.002  0.004
    3  0.001  0.000  0.002  0.004
    4  0.001  0.000  0.002  0.004
    5  0.001  0.000  0.002  0.002
    6  0.001  0.000  0.002  0.004
    7  0.001  0.000  0.002  0.004
    8  0.001  0.000  0.002  0.004
    9  0.002  0.000  0.002  0.004
   10  0.000  0.000  0.014  0.014
   11  0.000  0.000  0.006  0.006
   12  0.000  0.000  0.014  0.014
   13  0.000  0.000  0.006  0.006
   14  0.000  0.000  0.006  0.006
   15  0.000  0.000  0.005  0.005
   16  0.000  0.000  0.014  0.014
   17  0.000  0.000  0.005  0.005
   18  0.000  0.000  0.005  0.005
   19  0.004  0.000  0.021  0.025
   20  0.003  0.000  0.066  0.069
   21  0.003  0.000  0.065  0.069
   22  0.000  0.000  0.014  0.014
   23  0.003  0.000  0.065  0.069
   24  0.000  0.000  0.014  0.014
   25  0.004  0.000  0.021  0.025
   26  0.004  0.000  0.021  0.025
   27  0.000  0.000  0.014  0.014
   28  0.004  0.000  0.011  0.015
   29  0.011  0.000  0.022  0.034
   30  0.011  0.000  0.022  0.034
   31  0.011  0.000  0.022  0.034
   32  0.011  0.000  0.022  0.034
   33  0.011  0.000  0.022  0.034
   34  0.011  0.000  0.022  0.034
   35  0.008  0.000  0.010  0.018
   36  0.019  0.000  0.108  0.128
   37  0.002  0.015  0.000  0.017
tot    0.134  0.021  0.657  0.812
 
band     5 # energy   -5.18350588 # occ.  2.00000000
 
ion      s      p      d    tot
    1  0.003  0.001  0.004  0.007
    2  0.000  0.000  0.002  0.002
    3  0.000  0.000  0.002  0.002
    4  0.000  0.000  0.002  0.002
    5  0.001  0.000  0.000  0.001
    6  0.000  0.000  0.002  0.002
    7  0.000  0.000  0.002  0.002
    8  0.000  0.000  0.002  0.002
    9  0.001  0.000  0.000  0.002
   10  0.005  0.000  0.016  0.021
   11  0.000  0.000  0.016  0.016
   12  0.005  0.000  0.016  0.021
   13  0.000  0.000  0.016  0.016
   14  0.000  0.000  0.016  0.016
   15  0.001  0.000  0.009  0.011
   16  0.005  0.000  0.016  0.021
   17  0.001  0.000  0.009  0.011
   18  0.001  0.000  0.009  0.011
   19  0.003  0.000  0.032  0.035
   20  0.005  0.001  0.100  0.106
   21  0.005  0.001  0.099  0.106
   22  0.016  0.001  0.007  0.023
   23  0.005  0.001  0.099  0.106
   24  0.016  0.001  0.007  0.023
   25  0.003  0.000  0.032  0.035
   26  0.003  0.000  0.032  0.035
   27  0.016  0.001  0.007  0.023
   28  0.002  0.000  0.003  0.005
   29  0.000  0.000  0.006  0.006
   30  0.000  0.000  0.006  0.006
   31  0.000  0.000  0.006  0.006
   32  0.000  0.000  0.006  0.006
   33  0.000  0.000  0.006  0.006
   34  0.000  0.000  0.006  0.006
   35  0.005  0.001  0.002  0.007
   36  0.031  0.007  0.031  0.070
   37  0.012  0.024  0.000  0.036
tot    0.146  0.045  0.625  0.816
 
band     6 # energy   -5.10584208 # occ.  2.00000000
 
ion      s      p      d    tot
    1  0.000  0.000  0.006  0.006
    2  0.000  0.000  0.002  0.002
    3  0.000  0.000  0.002  0.002
    4  0.000  0.000  0.002  0.002
    5  0.000  0.000  0.002  0.002
    6  0.001  0.000  0.001  0.002
    7  0.000  0.000  0.002  0.002
    8  0.001  0.000  0.001  0.002
    9  0.000  0.000  0.001  0.001
   10  0.009  0.001  0.013  0.024
   11  0.001  0.001  0.023  0.024
   12  0.002  0.001  0.014  0.017
   13  0.001  0.001  0.023  0.024
   14  0.003  0.000  0.009  0.012
   15  0.000  0.000  0.007  0.007
   16  0.002  0.001  0.014  0.017
   17  0.000  0.000  0.007  0.007
   18  0.001  0.000  0.007  0.009
   19  0.003  0.001  0.013  0.017
   20  0.038  0.000  0.018  0.056
   21  0.010  0.000  0.090  0.100
   22  0.001  0.001  0.038  0.040
   23  0.009  0.000  0.091  0.101
   24  0.002  0.001  0.017  0.020
   25  0.012  0.000  0.029  0.041
   26  0.003  0.001  0.014  0.018
   27  0.001  0.001  0.039  0.040
   28  0.000  0.000  0.002  0.002
   29  0.001  0.001  0.012  0.014
   30  0.000  0.000  0.006  0.006
   31  0.001  0.001  0.012  0.014
   32  0.000  0.000  0.013  0.014
   33  0.000  0.000  0.006  0.006
   34  0.000  0.000  0.013  0.013
   35  0.000  0.000  0.002  0.002
   36  0.000  0.000  0.112  0.112
   37  0.000  0.025  0.000  0.025
tot    0.102  0.040  0.664  0.806
 
band     7 # energy   -5.10582600 # occ.  2.00000000
 
ion      s      p      d    tot
    1  0.000  0.000  0.006  0.006
    2  0.001  0.000  0.001  0.002
    3  0.000  0.000  0.001  0.002
    4  0.001  0.000  0.001  0.002
    5  0.000  0.000  0.002  0.002
    6  0.000  0.000  0.002  0.002
    7  0.000  0.000  0.001  0.002
    8  0.000  0.000  0.002  0.002
    9  0.000  0.000  0.001  0.001
   10  0.000  0.000  0.014  0.015
   11  0.002  0.000  0.014  0.016
   12  0.007  0.001  0.014  0.022
   13  0.002  0.001  0.014  0.017
   14  0.000  0.001  0.027  0.028
   15  0.001  0.000  0.007  0.008
   16  0.007  0.001  0.014  0.022
   17  0.001  0.000  0.007  0.008
   18  0.000  0.000  0.007  0.007
   19  0.009  0.001  0.024  0.033
   20  0.000  0.001  0.115  0.115
   21  0.028  0.000  0.043  0.072
   22  0.002  0.001  0.024  0.027
   23  0.029  0.000  0.042  0.070
   24  0.000  0.001  0.046  0.047
   25  0.000  0.001  0.008  0.010
   26  0.009  0.001  0.024  0.033
   27  0.002  0.001  0.024  0.026
   28  0.000  0.000  0.002  0.002
   29  0.000  0.000  0.009  0.009
   30  0.000  0.001  0.015  0.016
   31  0.000  0.000  0.008  0.009
   32  0.001  0.001  0.008  0.009
   33  0.001  0.001  0.015  0.016
   34  0.001  0.001  0.008  0.009
   35  0.000  0.000  0.002  0.002
   36  0.000  0.000  0.112  0.112
   37  0.000  0.025  0.000  0.025
tot    0.102  0.040  0.664  0.806
 
band     8 # energy   -5.04898082 # occ.  2.00000000
 
ion      s      p      d    tot
    1  0.019  0.000  0.016  0.035
    2  0.014  0.000  0.027  0.041
    3  0.014  0.000  0.027  0.041
    4  0.014  0.000  0.027  0.041
    5  0.017  0.000  0.035  0.052
    6  0.014  0.000  0.027  0.041
    7  0.014  0.000  0.027  0.041
    8  0.014  0.000  0.027  0.041
    9  0.008  0.000  0.030  0.038
   10  0.000  0.001  0.018  0.019
   11  0.001  0.000  0.032  0.033
   12  0.000  0.001  0.018  0.019
   13  0.001  0.000  0.032  0.033
   14  0.001  0.000  0.032  0.033
   15  0.004  0.001  0.019  0.024
   16  0.000  0.001  0.018  0.019
   17  0.004  0.001  0.019  0.024
   18  0.004  0.001  0.019  0.024
   19  0.005  0.000  0.001  0.006
   20  0.000  0.000  0.016  0.016
   21  0.000  0.000  0.016  0.017
   22  0.000  0.000  0.012  0.012
   23  0.000  0.000  0.016  0.017
   24  0.000  0.000  0.012  0.012
   25  0.005  0.000  0.001  0.006
   26  0.005  0.000  0.001  0.006
   27  0.000  0.000  0.012  0.012
   28  0.002  0.000  0.001  0.003
   29  0.000  0.000  0.009  0.009
   30  0.000  0.000  0.009  0.009
   31  0.000  0.000  0.009  0.009
   32  0.000  0.000  0.009  0.009
   33  0.000  0.000  0.009  0.009
   34  0.000  0.000  0.009  0.009
   35  0.000  0.000  0.000  0.001
   36  0.008  0.000  0.012  0.020
   37  0.000  0.001  0.000  0.001
tot    0.167  0.010  0.605  0.782
 
band     9 # energy   -5.01428411 # occ.  2.00000000
 
ion      s      p      d    tot
    1  0.000  0.000  0.001  0.001
    2  0.001  0.000  0.004  0.006
    3  0.000  0.000  0.002  0.002
    4  0.001  0.000  0.004  0.006
    5  0.000  0.000  0.006  0.007
    6  0.001  0.000  0.004  0.005
    7  0.000  0.000  0.002  0.002
    8  0.001  0.000  0.004  0.005
    9  0.000  0.000  0.005  0.005
   10  0.000  0.001  0.048  0.049
   11  0.016  0.001  0.025  0.041
   12  0.000  0.000  0.031  0.031
   13  0.016  0.001  0.024  0.041
   14  0.000  0.000  0.079  0.079
   15  0.012  0.001  0.026  0.039
   16  0.000  0.000  0.031  0.031
   17  0.012  0.001  0.026  0.039
   18  0.000  0.001  0.015  0.016
   19  0.006  0.000  0.024  0.031
   20  0.000  0.001  0.028  0.029
   21  0.003  0.000  0.037  0.041
   22  0.016  0.001  0.023  0.040
   23  0.003  0.000  0.037  0.041
   24  0.000  0.001  0.040  0.040
   25  0.000  0.000  0.068  0.068
   26  0.006  0.000  0.024  0.031
   27  0.016  0.001  0.023  0.040
   28  0.000  0.000  0.003  0.004
   29  0.000  0.000  0.003  0.004
   30  0.001  0.000  0.004  0.006
   31  0.000  0.000  0.003  0.004
   32  0.001  0.000  0.003  0.004
   33  0.001  0.000  0.004  0.006
   34  0.001  0.000  0.003  0.004
   35  0.000  0.000  0.008  0.008
   36  0.000  0.000  0.003  0.003
   37  0.000  0.000  0.000  0.000
tot    0.114  0.016  0.679  0.809
 
band    10 # energy   -5.01428134 # occ.  2.00000000
 
ion      s      p      d    tot
    1  0.000  0.000  0.001  0.001
    2  0.000  0.000  0.003  0.003
    3  0.001  0.000  0.005  0.006
    4  0.000  0.000  0.003  0.003
    5  0.000  0.000  0.006  0.007
    6  0.000  0.000  0.003  0.004
    7  0.001  0.000  0.005  0.006
    8  0.000  0.000  0.003  0.004
    9  0.000  0.000  0.005  0.005
   10  0.000  0.000  0.025  0.026
   11  0.005  0.000  0.061  0.067
   12  0.000  0.001  0.042  0.043
   13  0.005  0.000  0.061  0.067
   14  0.021  0.001  0.006  0.028
   15  0.004  0.001  0.018  0.024
   16  0.000  0.001  0.042  0.043
   17  0.004  0.001  0.018  0.024
   18  0.016  0.000  0.030  0.047
   19  0.002  0.000  0.054  0.056
   20  0.004  0.000  0.041  0.045
   21  0.001  0.001  0.031  0.033
   22  0.005  0.001  0.034  0.040
   23  0.001  0.001  0.031  0.033
   24  0.021  0.001  0.018  0.040
   25  0.008  0.001  0.010  0.019
   26  0.002  0.000  0.054  0.056
   27  0.005  0.001  0.034  0.040
   28  0.000  0.000  0.003  0.004
   29  0.001  0.000  0.004  0.005
   30  0.000  0.000  0.003  0.003
   31  0.001  0.000  0.004  0.005
   32  0.001  0.000  0.004  0.005
   33  0.000  0.000  0.003  0.003
   34  0.001  0.000  0.004  0.005
   35  0.000  0.000  0.008  0.008
   36  0.000  0.000  0.003  0.003
   37  0.000  0.000  0.000  0.000
tot    0.114  0.016  0.679  0.809
 
band    11 # energy   -5.00523995 # occ.  2.00000000
 
ion      s      p      d    tot
    1  0.002  0.000  0.000  0.002
    2  0.000  0.000  0.006  0.007
    3  0.000  0.000  0.006  0.007
    4  0.000  0.000  0.006  0.007
    5  0.002  0.001  0.006  0.009
    6  0.000  0.000  0.006  0.007
    7  0.000  0.000  0.006  0.007
    8  0.000  0.000  0.006  0.007
    9  0.004  0.000  0.000  0.005
   10  0.004  0.001  0.006  0.010
   11  0.010  0.000  0.023  0.033
   12  0.004  0.001  0.006  0.010
   13  0.010  0.000  0.023  0.033
   14  0.010  0.000  0.022  0.033
   15  0.000  0.000  0.034  0.035
   16  0.004  0.001  0.006  0.010
   17  0.000  0.000  0.034  0.035
   18  0.000  0.000  0.034  0.035
   19  0.013  0.001  0.026  0.040
   20  0.005  0.001  0.018  0.025
   21  0.005  0.001  0.018  0.025
   22  0.003  0.000  0.080  0.083
   23  0.005  0.001  0.018  0.025
   24  0.003  0.000  0.080  0.083
   25  0.013  0.001  0.026  0.040
   26  0.013  0.001  0.026  0.040
   27  0.003  0.000  0.080  0.083
   28  0.008  0.001  0.002  0.012
   29  0.001  0.000  0.005  0.006
   30  0.001  0.000  0.005  0.006
   31  0.001  0.000  0.005  0.006
   32  0.001  0.000  0.005  0.006
   33  0.001  0.000  0.005  0.006
   34  0.001  0.000  0.005  0.006
   35  0.000  0.001  0.019  0.020
   36  0.000  0.000  0.001  0.001
   37  0.000  0.000  0.000  0.000
tot    0.131  0.016  0.656  0.802
 
band    12 # energy   -4.98974006 # occ.  2.00000000
 
ion      s      p      d    tot
    1  0.000  0.000  0.005  0.005
    2  0.001  0.000  0.008  0.010
    3  0.001  0.000  0.008  0.010
    4  0.001  0.000  0.008  0.010
    5  0.003  0.000  0.000  0.003
    6  0.001  0.000  0.008  0.010
    7  0.001  0.000  0.008  0.010
    8  0.001  0.000  0.008  0.010
    9  0.002  0.000  0.016  0.018
   10  0.005  0.000  0.014  0.019
   11  0.005  0.001  0.036  0.041
   12  0.005  0.000  0.014  0.019
   13  0.005  0.001  0.035  0.041
   14  0.005  0.001  0.035  0.041
   15  0.003  0.000  0.065  0.067
   16  0.005  0.000  0.014  0.019
   17  0.003  0.000  0.065  0.067
   18  0.003  0.000  0.065  0.067
   19  0.000  0.001  0.003  0.004
   20  0.000  0.000  0.046  0.047
   21  0.000  0.000  0.046  0.046
   22  0.003  0.000  0.037  0.040
   23  0.000  0.000  0.046  0.046
   24  0.003  0.000  0.037  0.040
   25  0.000  0.001  0.003  0.004
   26  0.000  0.001  0.003  0.004
   27  0.003  0.000  0.037  0.040
   28  0.002  0.000  0.001  0.003
   29  0.002  0.000  0.009  0.011
   30  0.002  0.000  0.009  0.011
   31  0.002  0.000  0.009  0.011
   32  0.002  0.000  0.009  0.011
   33  0.002  0.000  0.009  0.011
   34  0.002  0.000  0.009  0.011
   35  0.004  0.000  0.012  0.015
   36  0.000  0.000  0.003  0.003
   37  0.000  0.001  0.000  0.001
tot    0.073  0.011  0.743  0.827
 
band    13 # energy   -4.97378263 # occ.  2.00000000
 
ion      s      p      d    tot
    1  0.000  0.001  0.011  0.012
    2  0.000  0.000  0.008  0.009
    3  0.002  0.001  0.008  0.011
    4  0.000  0.000  0.008  0.009
    5  0.000  0.000  0.009  0.009
    6  0.004  0.001  0.005  0.009
    7  0.002  0.001  0.008  0.011
    8  0.004  0.001  0.005  0.009
    9  0.000  0.000  0.009  0.009
   10  0.000  0.000  0.091  0.092
   11  0.005  0.000  0.031  0.036
   12  0.018  0.000  0.026  0.043
   13  0.005  0.000  0.032  0.036
   14  0.000  0.001  0.011  0.011
   15  0.005  0.000  0.032  0.037
   16  0.018  0.000  0.026  0.044
   17  0.005  0.000  0.032  0.036
   18  0.000  0.000  0.063  0.063
   19  0.004  0.000  0.023  0.026
   20  0.000  0.000  0.030  0.030
   21  0.000  0.001  0.029  0.029
   22  0.006  0.000  0.018  0.025
   23  0.000  0.001  0.029  0.029
   24  0.000  0.000  0.032  0.033
   25  0.000  0.000  0.040  0.040
   26  0.004  0.000  0.023  0.026
   27  0.006  0.000  0.018  0.025
   28  0.000  0.000  0.010  0.010
   29  0.004  0.001  0.004  0.008
   30  0.002  0.001  0.008  0.011
   31  0.004  0.001  0.004  0.008
   32  0.000  0.000  0.005  0.006
   33  0.002  0.001  0.008  0.011
   34  0.000  0.000  0.005  0.006
   35  0.000  0.000  0.003  0.003
   36  0.000  0.000  0.010  0.010
   37  0.000  0.000  0.000  0.000
tot    0.097  0.012  0.713  0.821
 
band    14 # energy   -4.97375292 # occ.  2.00000000
 
ion      s      p      d    tot
    1  0.000  0.001  0.011  0.012
    2  0.004  0.001  0.006  0.010
    3  0.002  0.000  0.006  0.008
    4  0.004  0.001  0.006  0.010
    5  0.000  0.000  0.009  0.009
    6  0.000  0.000  0.009  0.010
    7  0.002  0.000  0.006  0.008
    8  0.000  0.000  0.009  0.010
    9  0.000  0.000  0.009  0.009
   10  0.023  0.000  0.004  0.027
   11  0.002  0.001  0.018  0.020
   12  0.006  0.000  0.070  0.076
   13  0.002  0.001  0.018  0.020
   14  0.006  0.000  0.038  0.044
   15  0.001  0.000  0.052  0.053
   16  0.006  0.000  0.069  0.075
   17  0.001  0.000  0.052  0.053
   18  0.006  0.000  0.022  0.028
   19  0.001  0.000  0.034  0.036
   20  0.000  0.001  0.029  0.029
   21  0.000  0.000  0.030  0.030
   22  0.002  0.000  0.028  0.030
   23  0.000  0.000  0.030  0.030
   24  0.009  0.000  0.013  0.022
   25  0.005  0.000  0.017  0.022
   26  0.001  0.000  0.035  0.036
   27  0.002  0.000  0.028  0.030
   28  0.000  0.000  0.009  0.010
   29  0.000  0.000  0.008  0.008
   30  0.002  0.000  0.004  0.006
   31  0.000  0.000  0.008  0.008
   32  0.003  0.001  0.007  0.011
   33  0.002  0.000  0.004  0.006
   34  0.003  0.001  0.007  0.011
   35  0.000  0.000  0.003  0.003
   36  0.000  0.000  0.010  0.010
   37  0.000  0.000  0.000  0.000
tot    0.097  0.012  0.713  0.822
 
band    15 # energy   -4.96885067 # occ.  2.00000000
 
ion      s      p      d    tot
    1  0.001  0.000  0.024  0.025
    2  0.001  0.000  0.008  0.010
    3  0.001  0.000  0.008  0.010
    4  0.001  0.000  0.008  0.010
    5  0.000  0.000  0.000  0.001
    6  0.001  0.000  0.008  0.010
    7  0.001  0.000  0.008  0.010
    8  0.001  0.000  0.008  0.010
    9  0.005  0.001  0.001  0.006
   10  0.003  0.000  0.085  0.089
   11  0.004  0.000  0.025  0.030
   12  0.003  0.000  0.087  0.090
   13  0.004  0.000  0.025  0.030
   14  0.005  0.000  0.025  0.030
   15  0.007  0.001  0.020  0.027
   16  0.003  0.000  0.087  0.090
   17  0.007  0.001  0.020  0.027
   18  0.007  0.001  0.019  0.027
   19  0.001  0.000  0.031  0.031
   20  0.000  0.001  0.011  0.012
   21  0.000  0.001  0.011  0.012
   22  0.000  0.000  0.026  0.026
   23  0.000  0.001  0.011  0.012
   24  0.000  0.000  0.025  0.025
   25  0.001  0.000  0.031  0.032
   26  0.001  0.000  0.031  0.031
   27  0.000  0.000  0.026  0.026
   28  0.006  0.000  0.011  0.017
   29  0.002  0.000  0.010  0.012
   30  0.001  0.000  0.010  0.012
   31  0.002  0.000  0.010  0.012
   32  0.002  0.000  0.010  0.012
   33  0.001  0.000  0.010  0.012
   34  0.002  0.000  0.010  0.012
   35  0.000  0.000  0.005  0.005
   36  0.001  0.000  0.000  0.001
   37  0.000  0.000  0.000  0.000
tot    0.077  0.009  0.747  0.833
 
band    16 # energy   -4.96745517 # occ.  2.00000000
 
ion      s      p      d    tot
    1  0.000  0.000  0.008  0.008
    2  0.000  0.000  0.009  0.009
    3  0.001  0.000  0.007  0.008
    4  0.000  0.000  0.009  0.009
    5  0.000  0.000  0.002  0.002
    6  0.001  0.000  0.004  0.006
    7  0.001  0.000  0.006  0.008
    8  0.001  0.000  0.004  0.006
    9  0.000  0.000  0.014  0.014
   10  0.002  0.000  0.048  0.051
   11  0.001  0.000  0.057  0.058
   12  0.001  0.000  0.017  0.018
   13  0.001  0.000  0.055  0.056
   14  0.003  0.000  0.016  0.019
   15  0.003  0.000  0.077  0.080
   16  0.001  0.000  0.016  0.017
   17  0.003  0.000  0.075  0.078
   18  0.011  0.000  0.022  0.033
   19  0.001  0.000  0.053  0.054
   20  0.000  0.000  0.037  0.037
   21  0.000  0.000  0.016  0.016
   22  0.001  0.000  0.040  0.041
   23  0.000  0.000  0.015  0.015
   24  0.002  0.000  0.040  0.042
   25  0.003  0.000  0.008  0.011
   26  0.001  0.000  0.052  0.052
   27  0.001  0.000  0.040  0.041
   28  0.000  0.000  0.008  0.008
   29  0.002  0.000  0.006  0.008
   30  0.001  0.000  0.003  0.005
   31  0.002  0.000  0.006  0.008
   32  0.000  0.000  0.007  0.008
   33  0.001  0.000  0.003  0.005
   34  0.000  0.000  0.007  0.007
   35  0.000  0.000  0.013  0.013
   36  0.000  0.000  0.002  0.003
   37  0.000  0.000  0.000  0.000
tot    0.042  0.006  0.804  0.852
 
band    17 # energy   -4.96741069 # occ.  2.00000000
 
ion      s      p      d    tot
    1  0.000  0.000  0.007  0.007
    2  0.001  0.000  0.004  0.006
    3  0.001  0.000  0.007  0.007
    4  0.001  0.000  0.004  0.006
    5  0.000  0.000  0.002  0.002
    6  0.000  0.000  0.009  0.009
    7  0.001  0.000  0.007  0.008
    8  0.000  0.000  0.009  0.009
    9  0.000  0.000  0.014  0.014
   10  0.000  0.000  0.006  0.007
   11  0.002  0.000  0.028  0.031
   12  0.002  0.000  0.036  0.038
   13  0.002  0.000  0.030  0.032
   14  0.000  0.000  0.070  0.071
   15  0.008  0.000  0.039  0.047
   16  0.002  0.000  0.038  0.040
   17  0.008  0.000  0.041  0.049
   18  0.000  0.000  0.094  0.094
   19  0.002  0.000  0.022  0.025
   20  0.000  0.000  0.008  0.008
   21  0.000  0.000  0.030  0.030
   22  0.002  0.000  0.040  0.041
   23  0.000  0.000  0.031  0.031
   24  0.000  0.000  0.041  0.041
   25  0.000  0.000  0.067  0.067
   26  0.002  0.000  0.024  0.026
   27  0.002  0.000  0.040  0.042
   28  0.000  0.000  0.008  0.008
   29  0.000  0.000  0.005  0.005
   30  0.001  0.000  0.008  0.009
   31  0.000  0.000  0.005  0.005
   32  0.002  0.000  0.004  0.006
   33  0.001  0.000  0.008  0.009
   34  0.002  0.000  0.004  0.006
   35  0.000  0.000  0.013  0.013
   36  0.000  0.000  0.002  0.003
   37  0.000  0.000  0.000  0.000
tot    0.042  0.006  0.804  0.852
 
band    18 # energy   -4.89306853 # occ.  2.00000000
 
ion      s      p      d    tot
    1  0.000  0.000  0.004  0.004
    2  0.002  0.000  0.004  0.006
    3  0.002  0.001  0.005  0.007
    4  0.002  0.000  0.004  0.006
    5  0.000  0.000  0.011  0.012
    6  0.000  0.000  0.005  0.005
    7  0.002  0.001  0.005  0.007
    8  0.000  0.000  0.005  0.005
    9  0.000  0.000  0.005  0.005
   10  0.000  0.000  0.002  0.002
   11  0.003  0.000  0.040  0.043
   12  0.000  0.000  0.012  0.012
   13  0.003  0.000  0.039  0.042
   14  0.000  0.000  0.023  0.023
   15  0.001  0.000  0.017  0.018
   16  0.000  0.000  0.012  0.012
   17  0.001  0.000  0.017  0.018
   18  0.000  0.000  0.020  0.020
   19  0.002  0.000  0.023  0.025
   20  0.000  0.000  0.116  0.116
   21  0.000  0.000  0.090  0.090
   22  0.000  0.000  0.035  0.035
   23  0.000  0.000  0.089  0.089
   24  0.000  0.000  0.059  0.059
   25  0.000  0.000  0.004  0.004
   26  0.002  0.000  0.022  0.024
   27  0.000  0.000  0.034  0.034
   28  0.000  0.000  0.001  0.001
   29  0.001  0.001  0.011  0.013
   30  0.000  0.000  0.009  0.009
   31  0.001  0.001  0.011  0.013
   32  0.001  0.000  0.009  0.010
   33  0.000  0.000  0.009  0.009
   34  0.001  0.000  0.009  0.010
   35  0.000  0.000  0.000  0.000
   36  0.000  0.000  0.066  0.066
   37  0.000  0.018  0.000  0.018
tot    0.022  0.027  0.822  0.871
 
band    19 # energy   -4.89305592 # occ.  2.00000000
 
ion      s      p      d    tot
    1  0.000  0.000  0.004  0.004
    2  0.001  0.000  0.005  0.006
    3  0.000  0.000  0.004  0.005
    4  0.001  0.000  0.005  0.006
    5  0.000  0.000  0.011  0.012
    6  0.002  0.001  0.004  0.007
    7  0.001  0.000  0.004  0.005
    8  0.002  0.001  0.004  0.007
    9  0.000  0.000  0.005  0.005
   10  0.000  0.000  0.016  0.016
   11  0.001  0.000  0.028  0.029
   12  0.000  0.000  0.005  0.005
   13  0.001  0.000  0.029  0.030
   14  0.004  0.000  0.045  0.049
   15  0.000  0.000  0.019  0.019
   16  0.000  0.000  0.005  0.005
   17  0.000  0.000  0.019  0.019
   18  0.001  0.000  0.016  0.017
   19  0.001  0.000  0.010  0.010
   20  0.000  0.000  0.080  0.081
   21  0.000  0.000  0.106  0.106
   22  0.000  0.000  0.051  0.051
   23  0.000  0.000  0.107  0.107
   24  0.000  0.000  0.026  0.026
   25  0.002  0.000  0.029  0.031
   26  0.001  0.000  0.011  0.011
   27  0.000  0.000  0.051  0.052
   28  0.000  0.000  0.001  0.001
   29  0.000  0.000  0.008  0.008
   30  0.001  0.001  0.010  0.012
   31  0.000  0.000  0.008  0.008
   32  0.000  0.001  0.010  0.011
   33  0.001  0.001  0.011  0.013
   34  0.000  0.001  0.010  0.011
   35  0.000  0.000  0.000  0.000
   36  0.000  0.000  0.066  0.066
   37  0.000  0.018  0.000  0.018
tot    0.022  0.027  0.822  0.871
 
band    20 # energy   -4.85525410 # occ.  2.00000000
 
ion      s      p      d    tot
    1  0.000  0.000  0.000  0.000
    2  0.000  0.000  0.006  0.006
    3  0.000  0.000  0.006  0.006
    4  0.000  0.000  0.006  0.006
    5  0.001  0.000  0.008  0.009
    6  0.000  0.000  0.006  0.006
    7  0.000  0.000  0.006  0.006
    8  0.000  0.000  0.006  0.006
    9  0.000  0.000  0.011  0.012
   10  0.001  0.000  0.003  0.004
   11  0.000  0.001  0.063  0.064
   12  0.001  0.000  0.003  0.004
   13  0.000  0.001  0.063  0.064
   14  0.000  0.001  0.063  0.064
   15  0.001  0.001  0.044  0.046
   16  0.001  0.000  0.003  0.004
   17  0.001  0.001  0.044  0.046
   18  0.001  0.001  0.044  0.046
   19  0.001  0.000  0.021  0.022
   20  0.003  0.001  0.050  0.054
   21  0.003  0.001  0.050  0.054
   22  0.005  0.000  0.027  0.032
   23  0.003  0.001  0.050  0.054
   24  0.005  0.000  0.027  0.032
   25  0.001  0.000  0.021  0.022
   26  0.001  0.000  0.021  0.022
   27  0.005  0.000  0.027  0.032
   28  0.003  0.000  0.001  0.004
   29  0.000  0.001  0.016  0.016
   30  0.000  0.001  0.016  0.016
   31  0.000  0.001  0.016  0.016
   32  0.000  0.001  0.016  0.016
   33  0.000  0.001  0.016  0.016
   34  0.000  0.001  0.016  0.016
   35  0.003  0.000  0.003  0.007
   36  0.002  0.001  0.011  0.014
   37  0.002  0.006  0.000  0.008
tot    0.044  0.020  0.791  0.856
 
band    21 # energy   -4.80474550 # occ.  2.00000000
 
ion      s      p      d    tot
    1  0.000  0.000  0.004  0.004
    2  0.000  0.001  0.012  0.013
    3  0.000  0.001  0.012  0.013
    4  0.000  0.001  0.012  0.013
    5  0.004  0.001  0.000  0.005
    6  0.000  0.001  0.012  0.013
    7  0.000  0.001  0.012  0.013
    8  0.000  0.001  0.012  0.013
    9  0.003  0.001  0.001  0.005
   10  0.003  0.000  0.034  0.037
   11  0.000  0.000  0.038  0.038
   12  0.003  0.000  0.034  0.037
   13  0.000  0.000  0.038  0.038
   14  0.000  0.000  0.037  0.038
   15  0.003  0.000  0.014  0.017
   16  0.003  0.000  0.034  0.037
   17  0.003  0.000  0.014  0.017
   18  0.003  0.000  0.014  0.018
   19  0.001  0.000  0.055  0.056
   20  0.001  0.000  0.014  0.015
   21  0.001  0.000  0.014  0.015
   22  0.000  0.001  0.043  0.044
   23  0.001  0.000  0.014  0.015
   24  0.000  0.001  0.043  0.044
   25  0.001  0.000  0.055  0.056
   26  0.001  0.000  0.055  0.056
   27  0.000  0.001  0.043  0.044
   28  0.001  0.000  0.022  0.023
   29  0.001  0.001  0.014  0.015
   30  0.001  0.001  0.014  0.015
   31  0.001  0.001  0.014  0.015
   32  0.001  0.001  0.013  0.015
   33  0.001  0.001  0.014  0.015
   34  0.001  0.001  0.013  0.015
   35  0.010  0.001  0.000  0.012
   36  0.002  0.000  0.001  0.003