PROCAR new format
# of k-points:   10         # of bands:  252         # of ions:   39

 k-point     1 :    0.00000000 0.00000000 0.00000000     weight = 0.01562500

band     1 # energy  -25.13457602 # occ.  2.00000000
 
ion      s      p      d    tot
    1  0.000  0.000  0.000  0.000
    2  0.000  0.000  0.000  0.000
    3  0.000  0.000  0.000  0.000
    4  0.000  0.000  0.000  0.000
    5  0.000  0.000  0.000  0.000
    6  0.000  0.000  0.000  0.000
    7  0.000  0.000  0.000  0.000
    8  0.000  0.000  0.000  0.000
    9  0.000  0.000  0.000  0.000
   10  0.000  0.000  0.000  0.000
   11  0.000  0.000  0.000  0.000
   12  0.000  0.000  0.000  0.000
   13  0.000  0.000  0.000  0.000
   14  0.000  0.000  0.000  0.000
   15  0.000  0.000  0.000  0.000
   16  0.000  0.000  0.000  0.000
   17  0.000  0.000  0.000  0.000
   18  0.000  0.000  0.000  0.000
   19  0.000  0.000  0.000  0.000
   20  0.000  0.000  0.000  0.000
   21  0.000  0.000  0.000  0.000
   22  0.000  0.000  0.000  0.000
   23  0.000  0.000  0.000  0.000
   24  0.000  0.000  0.000  0.000
   25  0.000  0.000  0.000  0.000
   26  0.000  0.000  0.000  0.000
   27  0.000  0.000  0.000  0.000
   28  0.000  0.000  0.000  0.000
   29  0.000  0.000  0.000  0.000
   30  0.000  0.000  0.000  0.000
   31  0.000  0.000  0.000  0.000
   32  0.000  0.000  0.000  0.000
   33  0.000  0.000  0.000  0.000
   34  0.000  0.000  0.000  0.000
   35  0.000  0.000  0.000  0.000
   36  0.000  0.000  0.000  0.000
   37  0.079  0.058  0.000  0.137
   38  0.724  0.008  0.000  0.732
   39  0.059  0.013  0.000  0.071
tot    0.862  0.079  0.000  0.941
 
band     2 # energy  -15.79109865 # occ.  2.00000000
 
ion      s      p      d    tot
    1  0.000  0.000  0.000  0.000
    2  0.000  0.000  0.000  0.000
    3  0.000  0.000  0.000  0.000
    4  0.000  0.000  0.000  0.000
    5  0.000  0.000  0.000  0.000
    6  0.000  0.000  0.000  0.000
    7  0.000  0.000  0.000  0.000
    8  0.000  0.000  0.000  0.000
    9  0.000  0.000  0.000  0.000
   10  0.000  0.000  0.000  0.000
   11  0.000  0.000  0.000  0.000
   12  0.000  0.000  0.000  0.000
   13  0.000  0.000  0.000  0.000
   14  0.000  0.000  0.000  0.000
   15  0.000  0.000  0.000  0.000
   16  0.000  0.000  0.000  0.000
   17  0.000  0.000  0.000  0.000
   18  0.000  0.000  0.000  0.000
   19  0.000  0.000  0.000  0.000
   20  0.000  0.000  0.000  0.000
   21  0.000  0.000  0.000  0.000
   22  0.000  0.000  0.000  0.000
   23  0.000  0.000  0.000  0.000
   24  0.000  0.000  0.000  0.000
   25  0.000  0.000  0.000  0.000
   26  0.000  0.000  0.000  0.000
   27  0.000  0.000  0.000  0.000
   28  0.000  0.000  0.000  0.000
   29  0.000  0.000  0.000  0.000
   30  0.000  0.000  0.000  0.000
   31  0.000  0.000  0.000  0.000
   32  0.000  0.000  0.000  0.000
   33  0.000  0.000  0.000  0.000
   34  0.000  0.000  0.000  0.000
   35  0.000  0.000  0.000  0.000
   36  0.003  0.002  0.002  0.007
   37  0.159  0.049  0.000  0.208
   38  0.019  0.521  0.000  0.540
   39  0.199  0.032  0.000  0.231
tot    0.380  0.605  0.002  0.987
 
band     3 # energy   -9.06856395 # occ.  2.00000000
 
ion      s      p      d    tot
    1  0.001  0.000  0.000  0.002
    2  0.001  0.000  0.000  0.002
    3  0.001  0.000  0.000  0.002
    4  0.001  0.000  0.000  0.002
    5  0.001  0.000  0.000  0.002
    6  0.001  0.000  0.000  0.002
    7  0.001  0.000  0.000  0.002
    8  0.001  0.000  0.000  0.002
    9  0.001  0.000  0.000  0.002
   10  0.007  0.000  0.000  0.007
   11  0.007  0.000  0.000  0.008
   12  0.007  0.000  0.000  0.007
   13  0.007  0.000  0.000  0.008
   14  0.007  0.000  0.000  0.008
   15  0.007  0.000  0.000  0.007
   16  0.007  0.000  0.000  0.007
   17  0.007  0.000  0.000  0.007
   18  0.007  0.000  0.000  0.007
   19  0.011  0.000  0.000  0.011
   20  0.017  0.000  0.000  0.017
   21  0.017  0.000  0.000  0.017
   22  0.011  0.000  0.000  0.011
   23  0.017  0.000  0.000  0.017
   24  0.011  0.000  0.000  0.011
   25  0.011  0.000  0.000  0.011
   26  0.011  0.000  0.000  0.011
   27  0.011  0.000  0.000  0.011
   28  0.005  0.000  0.000  0.005
   29  0.009  0.001  0.000  0.010
   30  0.009  0.001  0.000  0.010
   31  0.009  0.001  0.000  0.010
   32  0.009  0.001  0.000  0.010
   33  0.009  0.001  0.000  0.010
   34  0.009  0.001  0.000  0.010
   35  0.005  0.000  0.000  0.005
   36  0.112  0.029  0.073  0.213
   37  0.098  0.097  0.000  0.194
   38  0.007  0.030  0.000  0.037
   39  0.008  0.001  0.000  0.009
tot    0.484  0.164  0.077  0.724
 
band     4 # energy   -8.58678390 # occ.  2.00000000
 
ion      s      p      d    tot
    1  0.007  0.001  0.000  0.007
    2  0.007  0.001  0.000  0.007
    3  0.007  0.001  0.000  0.007
    4  0.007  0.001  0.000  0.007
    5  0.007  0.001  0.000  0.007
    6  0.007  0.001  0.000  0.007
    7  0.007  0.001  0.000  0.007
    8  0.007  0.001  0.000  0.007
    9  0.007  0.001  0.000  0.008
   10  0.020  0.000  0.000  0.020
   11  0.019  0.000  0.000  0.019
   12  0.020  0.000  0.000  0.020
   13  0.019  0.000  0.000  0.019
   14  0.019  0.000  0.000  0.019
   15  0.021  0.000  0.000  0.021
   16  0.020  0.000  0.000  0.020
   17  0.021  0.000  0.000  0.021
   18  0.021  0.000  0.000  0.021
   19  0.013  0.000  0.000  0.013
   20  0.008  0.001  0.000  0.009
   21  0.008  0.001  0.000  0.009
   22  0.013  0.000  0.000  0.013
   23  0.008  0.001  0.000  0.009
   24  0.013  0.000  0.000  0.013
   25  0.013  0.000  0.000  0.013
   26  0.013  0.000  0.000  0.013
   27  0.013  0.000  0.000  0.013
   28  0.002  0.000  0.000  0.002
   29  0.000  0.001  0.000  0.002
   30  0.000  0.001  0.000  0.002
   31  0.000  0.001  0.000  0.002
   32  0.000  0.001  0.000  0.002
   33  0.000  0.001  0.000  0.002
   34  0.000  0.001  0.000  0.002
   35  0.002  0.000  0.000  0.002
   36  0.040  0.037  0.063  0.141
   37  0.078  0.072  0.000  0.150
   38  0.005  0.020  0.000  0.025
   39  0.006  0.000  0.000  0.006
tot    0.474  0.149  0.069  0.691
 
band     5 # energy   -7.88456346 # occ.  2.00000000
 
ion      s      p      d    tot
    1  0.000  0.000  0.000  0.000
    2  0.000  0.000  0.000  0.000
    3  0.000  0.000  0.000  0.000
    4  0.000  0.000  0.000  0.000
    5  0.000  0.000  0.000  0.000
    6  0.000  0.000  0.000  0.000
    7  0.000  0.000  0.000  0.000
    8  0.000  0.000  0.000  0.000
    9  0.000  0.000  0.000  0.000
   10  0.000  0.000  0.000  0.000
   11  0.000  0.000  0.000  0.000
   12  0.000  0.000  0.000  0.000
   13  0.000  0.000  0.000  0.000
   14  0.000  0.000  0.000  0.000
   15  0.000  0.000  0.000  0.000
   16  0.000  0.000  0.000  0.000
   17  0.000  0.000  0.000  0.000
   18  0.000  0.000  0.000  0.000
   19  0.000  0.000  0.000  0.000
   20  0.000  0.000  0.000  0.000
   21  0.000  0.000  0.000  0.000
   22  0.000  0.000  0.000  0.000
   23  0.000  0.000  0.000  0.000
   24  0.000  0.000  0.000  0.000
   25  0.000  0.000  0.000  0.000
   26  0.000  0.000  0.000  0.000
   27  0.000  0.000  0.000  0.000
   28  0.000  0.000  0.000  0.000
   29  0.001  0.000  0.000  0.001
   30  0.000  0.000  0.000  0.000
   31  0.001  0.000  0.000  0.001
   32  0.001  0.000  0.000  0.001
   33  0.000  0.000  0.000  0.000
   34  0.001  0.000  0.000  0.001
   35  0.000  0.000  0.000  0.000
   36  0.000  0.003  0.012  0.015
   37  0.000  0.114  0.000  0.114
   38  0.000  0.541  0.000  0.541
   39  0.000  0.007  0.000  0.007
tot    0.002  0.666  0.013  0.681
 
band     6 # energy   -7.88436376 # occ.  2.00000000
 
ion      s      p      d    tot
    1  0.000  0.000  0.000  0.000
    2  0.000  0.000  0.000  0.000
    3  0.000  0.000  0.000  0.000
    4  0.000  0.000  0.000  0.000
    5  0.000  0.000  0.000  0.000
    6  0.000  0.000  0.000  0.000
    7  0.000  0.000  0.000  0.000
    8  0.000  0.000  0.000  0.000
    9  0.000  0.000  0.000  0.000
   10  0.000  0.000  0.000  0.000
   11  0.000  0.000  0.000  0.000
   12  0.000  0.000  0.000  0.000
   13  0.000  0.000  0.000  0.000
   14  0.000  0.000  0.000  0.000
   15  0.000  0.000  0.000  0.000
   16  0.000  0.000  0.000  0.000
   17  0.000  0.000  0.000  0.000
   18  0.000  0.000  0.000  0.000
   19  0.000  0.000  0.000  0.000
   20  0.000  0.000  0.000  0.000
   21  0.000  0.000  0.000  0.000
   22  0.000  0.000  0.000  0.000
   23  0.000  0.000  0.000  0.000
   24  0.000  0.000  0.000  0.000
   25  0.000  0.000  0.000  0.000
   26  0.000  0.000  0.000  0.000
   27  0.000  0.000  0.000  0.000
   28  0.000  0.000  0.000  0.000
   29  0.000  0.000  0.000  0.000
   30  0.001  0.000  0.000  0.001
   31  0.000  0.000  0.000  0.000
   32  0.000  0.000  0.000  0.000
   33  0.001  0.000  0.000  0.001
   34  0.000  0.000  0.000  0.000
   35  0.000  0.000  0.000  0.000
   36  0.000  0.003  0.012  0.015
   37  0.000  0.114  0.000  0.114
   38  0.000  0.541  0.000  0.541
   39  0.000  0.007  0.000  0.007
tot    0.002  0.666  0.013  0.681
 
band     7 # energy   -7.36979111 # occ.  2.00000000
 
ion      s      p      d    tot
    1  0.018  0.001  0.001  0.019
    2  0.018  0.001  0.001  0.019
    3  0.018  0.001  0.001  0.019
    4  0.018  0.001  0.001  0.019
    5  0.018  0.001  0.001  0.019
    6  0.018  0.001  0.001  0.019
    7  0.018  0.001  0.001  0.019
    8  0.018  0.001  0.001  0.019
    9  0.017  0.001  0.001  0.019
   10  0.007  0.003  0.000  0.010
   11  0.008  0.002  0.000  0.011
   12  0.007  0.003  0.000  0.010
   13  0.008  0.002  0.000  0.011
   14  0.008  0.002  0.000  0.011
   15  0.007  0.003  0.001  0.010
   16  0.007  0.003  0.000  0.010
   17  0.007  0.003  0.001  0.010
   18  0.007  0.003  0.001  0.010
   19  0.014  0.002  0.001  0.017
   20  0.009  0.001  0.001  0.012
   21  0.009  0.001  0.001  0.012
   22  0.014  0.002  0.001  0.017
   23  0.009  0.001  0.001  0.012
   24  0.014  0.002  0.001  0.017
   25  0.014  0.002  0.001  0.017
   26  0.014  0.002  0.001  0.017
   27  0.014  0.002  0.001  0.017
   28  0.019  0.001  0.000  0.020
   29  0.014  0.001  0.000  0.016
   30  0.014  0.001  0.000  0.016
   31  0.014  0.001  0.000  0.016
   32  0.014  0.001  0.000  0.016
   33  0.014  0.001  0.000  0.016
   34  0.014  0.001  0.000  0.016
   35  0.019  0.001  0.000  0.020
   36  0.000  0.013  0.027  0.040
   37  0.017  0.013  0.000  0.031
   38  0.001  0.003  0.000  0.004
   39  0.001  0.000  0.000  0.001
tot    0.478  0.084  0.048  0.610
 
band     8 # energy   -5.83748770 # occ.  2.00000000
 
ion      s      p      d    tot
    1  0.015  0.000  0.005  0.019
    2  0.011  0.001  0.005  0.017
    3  0.011  0.001  0.005  0.017
    4  0.011  0.001  0.005  0.017
    5  0.001  0.001  0.006  0.009
    6  0.011  0.001  0.005  0.017
    7  0.011  0.001  0.005  0.017
    8  0.011  0.001  0.005  0.017
    9  0.026  0.000  0.002  0.029
   10  0.002  0.003  0.004  0.009
   11  0.021  0.006  0.001  0.028
   12  0.002  0.003  0.004  0.009
   13  0.021  0.006  0.001  0.028
   14  0.021  0.006  0.001  0.028
   15  0.001  0.002  0.006  0.009
   16  0.002  0.003  0.004  0.009
   17  0.001  0.002  0.006  0.009
   18  0.001  0.002  0.007  0.009
   19  0.000  0.002  0.007  0.009
   20  0.025  0.006  0.002  0.033
   21  0.025  0.006  0.002  0.033
   22  0.000  0.005  0.004  0.009
   23  0.025  0.006  0.002  0.033
   24  0.000  0.005  0.004  0.009
   25  0.000  0.002  0.007  0.009
   26  0.000  0.002  0.007  0.009
   27  0.000  0.005  0.004  0.009
   28  0.021  0.000  0.003  0.024
   29  0.011  0.001  0.006  0.018
   30  0.012  0.001  0.006  0.018
   31  0.011  0.001  0.006  0.018
   32  0.012  0.001  0.006  0.018
   33  0.012  0.001  0.006  0.018
   34  0.012  0.001  0.006  0.018
   35  0.027  0.000  0.003  0.030
   36  0.000  0.002  0.018  0.020
   37  0.000  0.000  0.000  0.001
   38  0.000  0.000  0.000  0.000
   39  0.000  0.000  0.000  0.000
tot    0.370  0.082  0.180  0.631
 
band     9 # energy   -5.80805945 # occ.  2.00000000
 
ion      s      p      d    tot
    1  0.000  0.001  0.004  0.005
    2  0.009  0.002  0.002  0.013
    3  0.001  0.001  0.002  0.004
    4  0.004  0.001  0.002  0.007
    5  0.000  0.003  0.005  0.008
    6  0.005  0.002  0.002  0.009
    7  0.001  0.001  0.002  0.003
    8  0.009  0.002  0.002  0.014
    9  0.000  0.001  0.002  0.003
   10  0.031  0.004  0.004  0.039
   11  0.030  0.005  0.007  0.042
   12  0.001  0.000  0.015  0.017
   13  0.002  0.008  0.009  0.019
   14  0.048  0.003  0.006  0.057
   15  0.001  0.005  0.004  0.011
   16  0.020  0.003  0.008  0.030
   17  0.000  0.011  0.003  0.014
   18  0.002  0.002  0.005  0.008
   19  0.002  0.006  0.004  0.012
   20  0.054  0.003  0.007  0.064
   21  0.002  0.008  0.010  0.020
   22  0.001  0.001  0.016  0.018
   23  0.034  0.005  0.008  0.047
   24  0.032  0.004  0.004  0.040
   25  0.003  0.002  0.005  0.010
   26  0.000  0.012  0.002  0.015
   27  0.020  0.003  0.009  0.032
   28  0.000  0.001  0.003  0.003
   29  0.012  0.003  0.003  0.017
   30  0.001  0.001  0.002  0.004
   31  0.006  0.002  0.003  0.011
   32  0.004  0.002  0.002  0.008
   33  0.002  0.001  0.003  0.006
   34  0.011  0.003  0.003  0.016
   35  0.000  0.001  0.005  0.006
   36  0.000  0.005  0.007  0.013
   37  0.000  0.000  0.000  0.000
   38  0.000  0.000  0.000  0.000
   39  0.000  0.000  0.000  0.000
tot    0.347  0.117  0.178  0.643
 
band    10 # energy   -5.80805342 # occ.  2.00000000
 
ion      s      p      d    tot
    1  0.000  0.001  0.004  0.005
    2  0.001  0.001  0.002  0.004
    3  0.008  0.002  0.002  0.012
    4  0.006  0.002  0.002  0.010
    5  0.000  0.003  0.005  0.008
    6  0.005  0.001  0.002  0.008
    7  0.009  0.002  0.002  0.013
    8  0.000  0.001  0.002  0.003
    9  0.000  0.001  0.002  0.003
   10  0.004  0.001  0.014  0.018
   11  0.024  0.006  0.007  0.037
   12  0.033  0.004  0.003  0.041
   13  0.051  0.002  0.006  0.060
   14  0.005  0.008  0.009  0.021
   15  0.001  0.007  0.004  0.011
   16  0.015  0.002  0.009  0.027
   17  0.002  0.001  0.005  0.008
   18  0.000  0.010  0.003  0.014
   19  0.001  0.007  0.004  0.012
   20  0.006  0.008  0.009  0.023
   21  0.058  0.002  0.006  0.067
   22  0.035  0.005  0.003  0.042
   23  0.026  0.006  0.008  0.040
   24  0.004  0.001  0.015  0.020
   25  0.000  0.011  0.003  0.014
   26  0.003  0.001  0.006  0.009
   27  0.016  0.002  0.010  0.029
   28  0.000  0.001  0.003  0.003
   29  0.000  0.001  0.002  0.003
   30  0.011  0.003  0.003  0.017
   31  0.006  0.002  0.002  0.010
   32  0.008  0.002  0.003  0.013
   33  0.010  0.002  0.003  0.015
   34  0.001  0.001  0.002  0.005
   35  0.000  0.001  0.005  0.006
   36  0.000  0.005  0.007  0.013
   37  0.000  0.000  0.000  0.000
   38  0.000  0.000  0.000  0.000
   39  0.000  0.000  0.000  0.000
tot    0.347  0.117  0.178  0.643
 
band    11 # energy   -5.79445041 # occ.  2.00000000
 
ion      s      p      d    tot
    1  0.020  0.003  0.001  0.024
    2  0.000  0.002  0.004  0.006
    3  0.000  0.002  0.004  0.006
    4  0.000  0.002  0.004  0.006
    5  0.001  0.000  0.000  0.001
    6  0.000  0.002  0.004  0.006
    7  0.000  0.002  0.004  0.006
    8  0.000  0.002  0.004  0.006
    9  0.009  0.002  0.000  0.011
   10  0.031  0.005  0.006  0.042
   11  0.004  0.001  0.011  0.016
   12  0.027  0.005  0.007  0.039
   13  0.004  0.001  0.011  0.016
   14  0.003  0.000  0.011  0.015
   15  0.013  0.009  0.003  0.025
   16  0.027  0.005  0.007  0.039
   17  0.013  0.009  0.003  0.025
   18  0.017  0.008  0.003  0.028
   19  0.023  0.009  0.002  0.034
   20  0.000  0.002  0.011  0.013
   21  0.000  0.002  0.010  0.012
   22  0.028  0.003  0.009  0.039
   23  0.000  0.002  0.010  0.012
   24  0.025  0.003  0.009  0.037
   25  0.019  0.010  0.002  0.030
   26  0.023  0.009  0.002  0.034
   27  0.028  0.003  0.009  0.039
   28  0.020  0.003  0.000  0.023
   29  0.000  0.002  0.004  0.006
   30  0.000  0.002  0.004  0.006
   31  0.000  0.002  0.004  0.006
   32  0.000  0.002  0.004  0.006
   33  0.000  0.002  0.004  0.006
   34  0.000  0.002  0.004  0.006
   35  0.013  0.003  0.002  0.017
   36  0.000  0.000  0.000  0.000
   37  0.000  0.000  0.000  0.000
   38  0.000  0.000  0.000  0.000
   39  0.000  0.000  0.000  0.000
tot    0.347  0.116  0.177  0.640
 
band    12 # energy   -5.79304347 # occ.  2.00000000
 
ion      s      p      d    tot
    1  0.000  0.002  0.004  0.006
    2  0.005  0.002  0.002  0.010
    3  0.010  0.002  0.002  0.015
    4  0.001  0.001  0.002  0.004
    5  0.000  0.000  0.003  0.003
    6  0.000  0.001  0.002  0.003
    7  0.009  0.002  0.002  0.013
    8  0.004  0.002  0.002  0.008
    9  0.000  0.003  0.006  0.008
   10  0.022  0.001  0.007  0.030
   11  0.000  0.005  0.009  0.014
   12  0.014  0.007  0.004  0.026
   13  0.003  0.004  0.006  0.013
   14  0.007  0.003  0.004  0.014
   15  0.005  0.002  0.015  0.022
   16  0.002  0.012  0.003  0.017
   17  0.031  0.003  0.010  0.044
   18  0.054  0.005  0.004  0.063
   19  0.004  0.002  0.015  0.021
   20  0.005  0.003  0.003  0.012
   21  0.003  0.004  0.007  0.014
   22  0.013  0.007  0.005  0.025
   23  0.000  0.006  0.009  0.015
   24  0.030  0.001  0.006  0.037
   25  0.059  0.004  0.004  0.068
   26  0.028  0.003  0.010  0.041
   27  0.002  0.013  0.003  0.017
   28  0.000  0.003  0.006  0.009
   29  0.004  0.001  0.002  0.008
   30  0.009  0.002  0.002  0.014
   31  0.000  0.001  0.002  0.003
   32  0.001  0.001  0.002  0.005
   33  0.010  0.003  0.003  0.016
   34  0.006  0.002  0.003  0.011
   35  0.000  0.003  0.004  0.006
   36  0.000  0.000  0.003  0.003
   37  0.000  0.000  0.000  0.000
   38  0.000  0.000  0.000  0.000
   39  0.000  0.000  0.000  0.000
tot    0.346  0.116  0.177  0.640
 
band    13 # energy   -5.79303828 # occ.  2.00000000
 
ion      s      p      d    tot
    1  0.000  0.002  0.004  0.006
    2  0.004  0.001  0.002  0.008
    3  0.000  0.001  0.002  0.003
    4  0.009  0.002  0.002  0.013
    5  0.000  0.000  0.003  0.003
    6  0.010  0.002  0.002  0.015
    7  0.001  0.001  0.002  0.004
    8  0.006  0.002  0.002  0.010
    9  0.000  0.003  0.006  0.008
   10  0.002  0.012  0.003  0.017
   11  0.006  0.003  0.004  0.013
   12  0.013  0.007  0.005  0.024
   13  0.003  0.004  0.006  0.014
   14  0.000  0.005  0.009  0.015
   15  0.056  0.004  0.004  0.065
   16  0.025  0.001  0.006  0.033
   17  0.030  0.003  0.010  0.043
   18  0.004  0.002  0.015  0.021
   19  0.056  0.004  0.004  0.065
   20  0.000  0.006  0.009  0.015
   21  0.003  0.004  0.006  0.014
   22  0.015  0.007  0.005  0.027
   23  0.006  0.003  0.004  0.013
   24  0.002  0.013  0.003  0.018
   25  0.004  0.002  0.016  0.021
   26  0.031  0.003  0.010  0.044
   27  0.027  0.001  0.007  0.035
   28  0.000  0.003  0.006  0.009
   29  0.006  0.002  0.003  0.011
   30  0.001  0.001  0.002  0.005
   31  0.010  0.003  0.003  0.015
   32  0.009  0.002  0.002  0.014
   33  0.000  0.001  0.002  0.003
   34  0.004  0.002  0.002  0.008
   35  0.000  0.003  0.004  0.006
   36  0.000  0.000  0.003  0.003
   37  0.000  0.000  0.000  0.000
   38  0.000  0.000  0.000  0.000
   39  0.000  0.000  0.000  0.000
tot    0.346  0.116  0.177  0.640
 
band    14 # energy   -5.70387417 # occ.  2.00000000
 
ion      s      p      d    tot
    1  0.001  0.001  0.003  0.004
    2  0.005  0.002  0.006  0.013
    3  0.005  0.002  0.006  0.013
    4  0.005  0.002  0.006  0.013
    5  0.042  0.002  0.001  0.045
    6  0.005  0.002  0.006  0.013
    7  0.005  0.002  0.006  0.013
    8  0.005  0.002  0.006  0.013
    9  0.000  0.002  0.006  0.008
   10  0.006  0.004  0.007  0.017
   11  0.011  0.007  0.005  0.024
   12  0.006  0.004  0.007  0.017
   13  0.011  0.007  0.005  0.024
   14  0.011  0.007  0.005  0.024
   15  0.025  0.002  0.009  0.036
   16  0.006  0.004  0.007  0.017
   17  0.025  0.002  0.009  0.036
   18  0.025  0.002  0.009  0.036
   19  0.010  0.003  0.007  0.019
   20  0.012  0.004  0.006  0.021
   21  0.012  0.004  0.006  0.021
   22  0.006  0.006  0.004  0.016
   23  0.012  0.004  0.006  0.021
   24  0.006  0.006  0.004  0.016
   25  0.010  0.003  0.007  0.019
   26  0.010  0.003  0.007  0.019
   27  0.006  0.006  0.004  0.016
   28  0.002  0.000  0.005  0.007
   29  0.006  0.000  0.004  0.011
   30  0.006  0.000  0.004  0.011
   31  0.006  0.000  0.004  0.011
   32  0.006  0.000  0.004  0.011
   33  0.006  0.000  0.004  0.011
   34  0.006  0.000  0.004  0.011
   35  0.001  0.000  0.003  0.005
   36  0.010  0.009  0.021  0.040
   37  0.006  0.004  0.000  0.009
   38  0.000  0.001  0.000  0.001
   39  0.000  0.000  0.000  0.000
tot    0.339  0.106  0.213  0.658
 
band    15 # energy   -5.03694577 # occ.  2.00000000
 
ion      s      p      d    tot
    1  0.009  0.000  0.008  0.017
    2  0.004  0.001  0.009  0.014
    3  0.004  0.001  0.009  0.014
    4  0.004  0.001  0.009  0.014
    5  0.000  0.002  0.009  0.011
    6  0.004  0.001  0.009  0.014
    7  0.004  0.001  0.009  0.014
    8  0.004  0.001  0.009  0.014
    9  0.011  0.000  0.007  0.018
   10  0.005  0.000  0.024  0.029
   11  0.012  0.001  0.021  0.034
   12  0.005  0.000  0.024  0.029
   13  0.012  0.001  0.021  0.034
   14  0.012  0.001  0.021  0.034
   15  0.002  0.000  0.021  0.024
   16  0.005  0.000  0.024  0.029
   17  0.002  0.000  0.021  0.024
   18  0.002  0.000  0.021  0.024
   19  0.003  0.000  0.020  0.023
   20  0.011  0.001  0.024  0.036
   21  0.011  0.001  0.024  0.036
   22  0.004  0.000  0.024  0.028
   23  0.011  0.001  0.024  0.036
   24  0.004  0.000  0.024  0.028
   25  0.003  0.000  0.020  0.023
   26  0.003  0.000  0.020  0.023
   27  0.004  0.000  0.024  0.028
   28  0.007  0.000  0.006  0.013
   29  0.004  0.001  0.008  0.013
   30  0.004  0.001  0.008  0.013
   31  0.004  0.001  0.008  0.013
   32  0.004  0.001  0.008  0.013
   33  0.004  0.001  0.008  0.013
   34  0.004  0.001  0.008  0.013
   35  0.010  0.000  0.007  0.017
   36  0.000  0.003  0.015  0.018
   37  0.000  0.000  0.000  0.000
   38  0.000  0.000  0.000  0.000
   39  0.000  0.000  0.000  0.000
tot    0.199  0.018  0.556  0.774
 
band    16 # energy   -5.03302579 # occ.  2.00000000
 
ion      s      p      d    tot
    1  0.000  0.001  0.011  0.012
    2  0.007  0.002  0.005  0.015
    3  0.022  0.004  0.005  0.031
    4  0.006  0.002  0.005  0.014
    5  0.000  0.006  0.009  0.015
    6  0.004  0.002  0.005  0.011
    7  0.022  0.004  0.005  0.031
    8  0.005  0.002  0.005  0.012
    9  0.000  0.002  0.012  0.014
   10  0.000  0.001  0.016  0.017
   11  0.018  0.004  0.010  0.032
   12  0.008  0.003  0.011  0.021
   13  0.017  0.004  0.011  0.032
   14  0.000  0.001  0.026  0.027
   15  0.002  0.001  0.010  0.013
   16  0.008  0.003  0.011  0.022
   17  0.002  0.001  0.011  0.014
   18  0.000  0.004  0.020  0.024
   19  0.000  0.001  0.010  0.011
   20  0.000  0.002  0.031  0.033
   21  0.012  0.004  0.012  0.027
   22  0.009  0.004  0.011  0.024
   23  0.013  0.004  0.011  0.027
   24  0.000  0.000  0.015  0.015
   25  0.000  0.003  0.019  0.023
   26  0.000  0.001  0.011  0.012
   27  0.009  0.004  0.011  0.024
   28  0.000  0.001  0.012  0.013
   29  0.009  0.002  0.005  0.016
   30  0.021  0.004  0.005  0.030
   31  0.008  0.002  0.005  0.015
   32  0.003  0.002  0.005  0.009
   33  0.021  0.004  0.005  0.030
   34  0.003  0.002  0.005  0.010
   35  0.000  0.002  0.008  0.011
   36  0.000  0.008  0.009  0.017
   37  0.000  0.000  0.000  0.000
   38  0.000  0.001  0.000  0.001
   39  0.000  0.000  0.000  0.000
tot    0.229  0.098  0.379  0.706
 
band    17 # energy   -5.03298148 # occ.  2.00000000
 
ion      s      p      d    tot
    1  0.000  0.001  0.011  0.012
    2  0.015  0.003  0.005  0.023
    3  0.000  0.002  0.005  0.007
    4  0.015  0.003  0.005  0.024
    5  0.000  0.006  0.009  0.015
    6  0.018  0.004  0.006  0.027
    7  0.000  0.002  0.005  0.007
    8  0.017  0.004  0.006  0.026
    9  0.000  0.002  0.012  0.014
   10  0.011  0.003  0.009  0.023
   11  0.005  0.002  0.021  0.028
   12  0.003  0.002  0.014  0.019
   13  0.006  0.002  0.020  0.029
   14  0.024  0.005  0.005  0.034
   15  0.001  0.003  0.017  0.021
   16  0.003  0.002  0.014  0.019
   17  0.001  0.003  0.017  0.020
   18  0.002  0.000  0.008  0.010
   19  0.000  0.002  0.017  0.019
   20  0.017  0.004  0.004  0.025
   21  0.004  0.002  0.024  0.031
   22  0.003  0.002  0.013  0.018
   23  0.004  0.002  0.025  0.031
   24  0.012  0.005  0.010  0.027
   25  0.000  0.000  0.008  0.008
   26  0.000  0.002  0.016  0.019
   27  0.003  0.001  0.013  0.018
   28  0.000  0.001  0.012  0.013
   29  0.013  0.003  0.005  0.021
   30  0.000  0.002  0.005  0.007
   31  0.014  0.003  0.005  0.022
   32  0.019  0.003  0.005  0.028
   33  0.001  0.002  0.005  0.007
   34  0.018  0.003  0.005  0.027
   35  0.000  0.002  0.008  0.011
   36  0.000  0.008  0.009  0.017
   37  0.000  0.000  0.000  0.000
   38  0.000  0.001  0.000  0.001
   39  0.000  0.000  0.000  0.000
tot    0.229  0.098  0.379  0.706
 
band    18 # energy   -5.01981777 # occ.  2.00000000
 
ion      s      p      d    tot
    1  0.033  0.004  0.001  0.037
    2  0.000  0.003  0.010  0.014
    3  0.000  0.003  0.010  0.014
    4  0.000  0.003  0.010  0.014
    5  0.000  0.000  0.000  0.000
    6  0.000  0.003  0.010  0.014
    7  0.000  0.003  0.010  0.014
    8  0.000  0.003  0.010  0.014
    9  0.032  0.003  0.000  0.036
   10  0.010  0.004  0.010  0.024
   11  0.001  0.000  0.015  0.016
   12  0.010  0.004  0.010  0.024
   13  0.001  0.000  0.015  0.016
   14  0.001  0.000  0.015  0.016
   15  0.006  0.004  0.018  0.028
   16  0.010  0.004  0.010  0.024
   17  0.006  0.004  0.018  0.028
   18  0.007  0.004  0.018  0.028
   19  0.006  0.004  0.018  0.027
   20  0.000  0.000  0.015  0.016
   21  0.000  0.000  0.015  0.015
   22  0.010  0.003  0.010  0.024
   23  0.000  0.000  0.015  0.015
   24  0.010  0.003  0.010  0.024
   25  0.005  0.004  0.018  0.027
   26  0.006  0.004  0.018  0.027
   27  0.010  0.003  0.010  0.024
   28  0.034  0.003  0.000  0.038
   29  0.000  0.003  0.010  0.013
   30  0.000  0.003  0.010  0.013
   31  0.000  0.003  0.010  0.013
   32  0.000  0.003  0.010  0.013
   33  0.000  0.003  0.010  0.013
   34  0.000  0.003  0.010  0.013
   35  0.029  0.003  0.001  0.033
   36  0.000  0.000  0.000  0.000
   37  0.000  0.000  0.000  0.000
   38  0.000  0.000  0.000  0.000
   39  0.000  0.000  0.000  0.000
tot    0.228  0.094  0.383  0.704
 
band    19 # energy   -5.01604302 # occ.  2.00000000
 
ion      s      p      d    tot
    1  0.000  0.005  0.011  0.016
    2  0.007  0.002  0.005  0.014
    3  0.021  0.004  0.005  0.031
    4  0.006  0.002  0.005  0.014
    5  0.000  0.000  0.012  0.012
    6  0.004  0.002  0.005  0.011
    7  0.021  0.004  0.005  0.031
    8  0.004  0.002  0.005  0.011
    9  0.000  0.004  0.009  0.013
   10  0.013  0.002  0.005  0.020
   11  0.000  0.002  0.014  0.016
   12  0.003  0.003  0.021  0.028
   13  0.000  0.002  0.014  0.016
   14  0.001  0.001  0.010  0.011
   15  0.005  0.001  0.017  0.024
   16  0.003  0.003  0.022  0.028
   17  0.005  0.001  0.017  0.024
   18  0.020  0.005  0.007  0.033
   19  0.005  0.002  0.019  0.026
   20  0.003  0.002  0.010  0.015
   21  0.001  0.002  0.014  0.016
   22  0.002  0.003  0.022  0.027
   23  0.001  0.002  0.014  0.016
   24  0.008  0.001  0.005  0.015
   25  0.021  0.006  0.006  0.033
   26  0.005  0.002  0.019  0.026
   27  0.002  0.003  0.022  0.027
   28  0.000  0.005  0.007  0.013
   29  0.008  0.002  0.005  0.016
   30  0.021  0.004  0.005  0.029
   31  0.008  0.002  0.005  0.016
   32  0.003  0.002  0.005  0.010
   33  0.021  0.004  0.005  0.029
   34  0.003  0.002  0.005  0.010
   35  0.000  0.004  0.011  0.015
   36  0.000  0.000  0.011  0.011
   37  0.000  0.000  0.000  0.000
   38  0.000  0.000  0.000  0.000
   39  0.000  0.000  0.000  0.000
tot    0.227  0.094  0.383  0.704
 
band    20 # energy   -5.01599430 # occ.  2.00000000
 
ion      s      p      d    tot
    1  0.000  0.005  0.011  0.016
    2  0.015  0.003  0.005  0.023
    3  0.000  0.002  0.005  0.007
    4  0.015  0.003  0.005  0.023
    5  0.000  0.000  0.012  0.012
    6  0.017  0.004  0.005  0.026
    7  0.000  0.002  0.005  0.007
    8  0.017  0.003  0.005  0.026
    9  0.000  0.004  0.009  0.013
   10  0.000  0.003  0.027  0.030
   11  0.001  0.001  0.011  0.013
   12  0.010  0.002  0.011  0.023
   13  0.001  0.001  0.011  0.013
   14  0.000  0.003  0.015  0.018
   15  0.015  0.004  0.011  0.030
   16  0.010  0.002  0.011  0.023
   17  0.015  0.004  0.011  0.030
   18  0.000  0.000  0.021  0.021
   19  0.016  0.004  0.011  0.031
   20  0.000  0.002  0.014  0.017
   21  0.002  0.002  0.012  0.016
   22  0.006  0.002  0.011  0.019
   23  0.002  0.002  0.011  0.016
   24  0.000  0.003  0.027  0.030
   25  0.000  0.000  0.023  0.024
   26  0.016  0.004  0.011  0.031
   27  0.006  0.002  0.011  0.019
   28  0.000  0.005  0.007  0.013
   29  0.013  0.003  0.005  0.021
   30  0.000  0.002  0.005  0.007
   31  0.013  0.003  0.005  0.021
   32  0.018  0.003  0.005  0.027
   33  0.000  0.002  0.005  0.008
   34  0.018  0.003  0.005  0.027
   35  0.000  0.004  0.011  0.015
   36  0.000  0.000  0.011  0.011
   37  0.000  0.000  0.000  0.000
   38  0.000  0.000  0.000  0.000
   39  0.000  0.000  0.000  0.000