PROCAR new format
# of k-points:   10         # of bands:  252         # of ions:   38

 k-point     1 :    0.00000000 0.00000000 0.00000000     weight = 0.01562500

band     1 # energy  -23.19728973 # occ.  2.00000000
 
ion      s      p      d    tot
    1  0.000  0.000  0.000  0.000
    2  0.000  0.000  0.000  0.000
    3  0.000  0.000  0.000  0.000
    4  0.000  0.000  0.000  0.000
    5  0.000  0.000  0.000  0.000
    6  0.000  0.000  0.000  0.000
    7  0.000  0.000  0.000  0.000
    8  0.000  0.000  0.000  0.000
    9  0.000  0.000  0.000  0.000
   10  0.000  0.000  0.000  0.000
   11  0.000  0.000  0.000  0.000
   12  0.000  0.000  0.000  0.000
   13  0.000  0.000  0.000  0.000
   14  0.000  0.000  0.000  0.000
   15  0.000  0.000  0.000  0.000
   16  0.000  0.000  0.000  0.000
   17  0.000  0.000  0.000  0.000
   18  0.000  0.000  0.000  0.000
   19  0.000  0.000  0.000  0.000
   20  0.000  0.000  0.000  0.000
   21  0.000  0.000  0.000  0.000
   22  0.000  0.000  0.000  0.000
   23  0.000  0.000  0.000  0.000
   24  0.000  0.000  0.000  0.000
   25  0.000  0.000  0.000  0.000
   26  0.000  0.000  0.000  0.000
   27  0.000  0.000  0.000  0.000
   28  0.000  0.000  0.000  0.000
   29  0.000  0.000  0.000  0.000
   30  0.000  0.000  0.000  0.000
   31  0.000  0.000  0.000  0.000
   32  0.000  0.000  0.000  0.000
   33  0.000  0.000  0.000  0.000
   34  0.000  0.000  0.000  0.000
   35  0.000  0.000  0.000  0.000
   36  0.000  0.000  0.000  0.000
   37  0.159  0.118  0.000  0.277
   38  0.639  0.096  0.000  0.735
tot    0.798  0.214  0.000  1.012
 
band     2 # energy   -8.83122272 # occ.  2.00000000
 
ion      s      p      d    tot
    1  0.000  0.000  0.000  0.000
    2  0.000  0.000  0.000  0.000
    3  0.000  0.000  0.000  0.000
    4  0.000  0.000  0.000  0.000
    5  0.000  0.000  0.000  0.000
    6  0.000  0.000  0.000  0.000
    7  0.000  0.000  0.000  0.000
    8  0.000  0.000  0.000  0.000
    9  0.000  0.000  0.000  0.000
   10  0.000  0.000  0.000  0.000
   11  0.000  0.000  0.000  0.000
   12  0.000  0.000  0.000  0.000
   13  0.000  0.000  0.000  0.000
   14  0.000  0.000  0.000  0.000
   15  0.000  0.000  0.000  0.000
   16  0.000  0.000  0.000  0.000
   17  0.000  0.000  0.000  0.000
   18  0.000  0.000  0.000  0.000
   19  0.000  0.000  0.000  0.000
   20  0.000  0.000  0.000  0.001
   21  0.000  0.000  0.000  0.001
   22  0.000  0.000  0.000  0.000
   23  0.000  0.000  0.000  0.001
   24  0.000  0.000  0.000  0.000
   25  0.000  0.000  0.000  0.000
   26  0.000  0.000  0.000  0.000
   27  0.000  0.000  0.000  0.000
   28  0.000  0.000  0.000  0.000
   29  0.000  0.000  0.000  0.001
   30  0.000  0.000  0.000  0.001
   31  0.000  0.000  0.000  0.001
   32  0.000  0.000  0.000  0.001
   33  0.000  0.000  0.000  0.001
   34  0.000  0.000  0.000  0.001
   35  0.000  0.000  0.000  0.000
   36  0.037  0.028  0.077  0.141
   37  0.281  0.006  0.000  0.287
   38  0.140  0.220  0.000  0.361
tot    0.460  0.255  0.079  0.794
 
band     3 # energy   -6.42193593 # occ.  2.00000000
 
ion      s      p      d    tot
    1  0.001  0.000  0.000  0.001
    2  0.001  0.000  0.000  0.001
    3  0.001  0.000  0.000  0.001
    4  0.001  0.000  0.000  0.001
    5  0.000  0.000  0.000  0.001
    6  0.001  0.000  0.000  0.001
    7  0.001  0.000  0.000  0.001
    8  0.001  0.000  0.000  0.001
    9  0.000  0.000  0.000  0.001
   10  0.003  0.000  0.000  0.003
   11  0.003  0.000  0.000  0.003
   12  0.003  0.000  0.000  0.003
   13  0.003  0.000  0.000  0.003
   14  0.003  0.000  0.000  0.003
   15  0.002  0.000  0.000  0.002
   16  0.003  0.000  0.000  0.003
   17  0.002  0.000  0.000  0.002
   18  0.002  0.000  0.000  0.002
   19  0.004  0.000  0.000  0.004
   20  0.008  0.000  0.003  0.012
   21  0.008  0.000  0.003  0.012
   22  0.004  0.000  0.000  0.004
   23  0.008  0.000  0.003  0.012
   24  0.004  0.000  0.000  0.004
   25  0.004  0.000  0.000  0.004
   26  0.004  0.000  0.000  0.004
   27  0.004  0.000  0.000  0.004
   28  0.001  0.000  0.000  0.002
   29  0.003  0.000  0.000  0.003
   30  0.003  0.000  0.000  0.003
   31  0.003  0.000  0.000  0.003
   32  0.003  0.000  0.000  0.003
   33  0.003  0.000  0.000  0.003
   34  0.003  0.000  0.000  0.003
   35  0.001  0.000  0.000  0.001
   36  0.064  0.018  0.141  0.223
   37  0.010  0.186  0.000  0.197
   38  0.025  0.266  0.000  0.291
tot    0.196  0.473  0.155  0.824
 
band     4 # energy   -6.09857032 # occ.  2.00000000
 
ion      s      p      d    tot
    1  0.006  0.001  0.000  0.006
    2  0.006  0.001  0.000  0.007
    3  0.006  0.001  0.000  0.007
    4  0.006  0.001  0.000  0.007
    5  0.006  0.001  0.000  0.007
    6  0.006  0.001  0.000  0.007
    7  0.006  0.001  0.000  0.007
    8  0.006  0.001  0.000  0.007
    9  0.006  0.001  0.000  0.007
   10  0.021  0.000  0.001  0.022
   11  0.022  0.000  0.000  0.022
   12  0.021  0.000  0.001  0.022
   13  0.022  0.000  0.000  0.022
   14  0.022  0.000  0.000  0.022
   15  0.023  0.000  0.000  0.023
   16  0.021  0.000  0.001  0.022
   17  0.023  0.000  0.000  0.023
   18  0.023  0.000  0.000  0.023
   19  0.018  0.000  0.000  0.019
   20  0.014  0.000  0.001  0.016
   21  0.014  0.000  0.001  0.016
   22  0.019  0.000  0.000  0.020
   23  0.014  0.000  0.001  0.016
   24  0.019  0.000  0.000  0.020
   25  0.018  0.000  0.000  0.019
   26  0.018  0.000  0.000  0.019
   27  0.019  0.000  0.000  0.020
   28  0.004  0.000  0.000  0.005
   29  0.003  0.001  0.000  0.004
   30  0.003  0.001  0.000  0.004
   31  0.003  0.001  0.000  0.004
   32  0.003  0.001  0.000  0.004
   33  0.003  0.001  0.000  0.004
   34  0.003  0.001  0.000  0.004
   35  0.004  0.000  0.000  0.005
   36  0.002  0.010  0.042  0.055
   37  0.005  0.040  0.000  0.046
   38  0.003  0.045  0.000  0.048
tot    0.444  0.108  0.054  0.606
 
band     5 # energy   -6.03043342 # occ.  2.00000000
 
ion      s      p      d    tot
    1  0.000  0.000  0.000  0.000
    2  0.000  0.000  0.000  0.000
    3  0.000  0.000  0.000  0.000
    4  0.000  0.000  0.000  0.000
    5  0.000  0.000  0.000  0.000
    6  0.000  0.000  0.000  0.000
    7  0.000  0.000  0.000  0.000
    8  0.000  0.000  0.000  0.000
    9  0.000  0.000  0.000  0.000
   10  0.000  0.000  0.000  0.000
   11  0.000  0.000  0.000  0.000
   12  0.000  0.000  0.000  0.000
   13  0.000  0.000  0.000  0.000
   14  0.000  0.000  0.000  0.000
   15  0.000  0.000  0.000  0.000
   16  0.000  0.000  0.000  0.000
   17  0.000  0.000  0.000  0.000
   18  0.000  0.000  0.000  0.000
   19  0.000  0.000  0.000  0.000
   20  0.000  0.000  0.000  0.000
   21  0.000  0.000  0.000  0.000
   22  0.000  0.000  0.000  0.000
   23  0.000  0.000  0.000  0.000
   24  0.000  0.000  0.000  0.000
   25  0.000  0.000  0.000  0.000
   26  0.000  0.000  0.000  0.000
   27  0.000  0.000  0.000  0.000
   28  0.000  0.000  0.000  0.000
   29  0.000  0.000  0.001  0.002
   30  0.000  0.000  0.000  0.000
   31  0.000  0.000  0.001  0.002
   32  0.000  0.000  0.001  0.002
   33  0.000  0.000  0.000  0.000
   34  0.000  0.000  0.001  0.002
   35  0.000  0.000  0.000  0.000
   36  0.000  0.003  0.031  0.034
   37  0.000  0.177  0.000  0.177
   38  0.000  0.463  0.000  0.463
tot    0.001  0.644  0.038  0.683
 
band     6 # energy   -6.03031641 # occ.  2.00000000
 
ion      s      p      d    tot
    1  0.000  0.000  0.000  0.000
    2  0.000  0.000  0.000  0.000
    3  0.000  0.000  0.000  0.000
    4  0.000  0.000  0.000  0.000
    5  0.000  0.000  0.000  0.000
    6  0.000  0.000  0.000  0.000
    7  0.000  0.000  0.000  0.000
    8  0.000  0.000  0.000  0.000
    9  0.000  0.000  0.000  0.000
   10  0.000  0.000  0.000  0.000
   11  0.000  0.000  0.000  0.000
   12  0.000  0.000  0.000  0.000
   13  0.000  0.000  0.000  0.000
   14  0.000  0.000  0.000  0.000
   15  0.000  0.000  0.000  0.000
   16  0.000  0.000  0.000  0.000
   17  0.000  0.000  0.000  0.000
   18  0.000  0.000  0.000  0.000
   19  0.000  0.000  0.000  0.000
   20  0.000  0.000  0.000  0.000
   21  0.000  0.000  0.000  0.000
   22  0.000  0.000  0.000  0.000
   23  0.000  0.000  0.000  0.000
   24  0.000  0.000  0.000  0.000
   25  0.000  0.000  0.000  0.000
   26  0.000  0.000  0.000  0.000
   27  0.000  0.000  0.000  0.000
   28  0.000  0.000  0.000  0.000
   29  0.000  0.000  0.001  0.001
   30  0.000  0.000  0.001  0.002
   31  0.000  0.000  0.001  0.001
   32  0.000  0.000  0.001  0.001
   33  0.000  0.000  0.001  0.002
   34  0.000  0.000  0.001  0.001
   35  0.000  0.000  0.000  0.000
   36  0.000  0.003  0.031  0.034
   37  0.000  0.177  0.000  0.177
   38  0.000  0.463  0.000  0.463
tot    0.001  0.644  0.038  0.683
 
band     7 # energy   -5.26766876 # occ.  2.00000000
 
ion      s      p      d    tot
    1  0.008  0.000  0.000  0.009
    2  0.007  0.000  0.000  0.008
    3  0.007  0.000  0.000  0.008
    4  0.007  0.000  0.000  0.008
    5  0.007  0.000  0.000  0.008
    6  0.007  0.000  0.000  0.008
    7  0.007  0.000  0.000  0.008
    8  0.007  0.000  0.000  0.008
    9  0.007  0.000  0.000  0.008
   10  0.011  0.001  0.014  0.026
   11  0.010  0.001  0.015  0.026
   12  0.011  0.001  0.014  0.026
   13  0.010  0.001  0.015  0.026
   14  0.010  0.001  0.015  0.026
   15  0.009  0.001  0.016  0.026
   16  0.011  0.001  0.014  0.026
   17  0.009  0.001  0.016  0.026
   18  0.009  0.001  0.016  0.026
   19  0.013  0.001  0.017  0.032
   20  0.010  0.001  0.018  0.029
   21  0.010  0.001  0.018  0.029
   22  0.015  0.001  0.017  0.032
   23  0.010  0.001  0.018  0.029
   24  0.015  0.001  0.017  0.032
   25  0.013  0.001  0.017  0.032
   26  0.013  0.001  0.017  0.032
   27  0.015  0.001  0.017  0.032
   28  0.008  0.001  0.000  0.008
   29  0.006  0.001  0.000  0.007
   30  0.006  0.001  0.000  0.007
   31  0.006  0.001  0.000  0.007
   32  0.006  0.001  0.000  0.007
   33  0.006  0.001  0.000  0.007
   34  0.006  0.001  0.000  0.007
   35  0.008  0.001  0.000  0.009
   36  0.001  0.002  0.008  0.011
   37  0.001  0.003  0.000  0.004
   38  0.000  0.002  0.000  0.002
tot    0.328  0.031  0.306  0.664
 
band     8 # energy   -5.01214284 # occ.  2.00000000
 
ion      s      p      d    tot
    1  0.015  0.000  0.021  0.036
    2  0.013  0.000  0.020  0.033
    3  0.013  0.000  0.020  0.033
    4  0.013  0.000  0.020  0.033
    5  0.012  0.000  0.020  0.032
    6  0.013  0.000  0.020  0.033
    7  0.013  0.000  0.020  0.033
    8  0.013  0.000  0.020  0.033
    9  0.013  0.000  0.021  0.034
   10  0.000  0.000  0.021  0.022
   11  0.000  0.000  0.018  0.018
   12  0.000  0.000  0.021  0.022
   13  0.000  0.000  0.018  0.018
   14  0.000  0.000  0.018  0.018
   15  0.001  0.000  0.018  0.019
   16  0.000  0.000  0.021  0.022
   17  0.001  0.000  0.018  0.019
   18  0.001  0.000  0.018  0.019
   19  0.000  0.000  0.012  0.012
   20  0.000  0.000  0.013  0.013
   21  0.000  0.000  0.013  0.013
   22  0.000  0.000  0.014  0.014
   23  0.000  0.000  0.013  0.013
   24  0.000  0.000  0.014  0.014
   25  0.000  0.000  0.012  0.012
   26  0.000  0.000  0.012  0.012
   27  0.000  0.000  0.014  0.014
   28  0.009  0.000  0.010  0.019
   29  0.008  0.000  0.010  0.018
   30  0.008  0.000  0.010  0.018
   31  0.008  0.000  0.010  0.018
   32  0.008  0.000  0.010  0.018
   33  0.008  0.000  0.010  0.018
   34  0.008  0.000  0.010  0.018
   35  0.010  0.000  0.011  0.021
   36  0.004  0.000  0.012  0.017
   37  0.000  0.000  0.000  0.000
   38  0.000  0.000  0.000  0.000
tot    0.194  0.006  0.566  0.765
 
band     9 # energy   -4.87966333 # occ.  2.00000000
 
ion      s      p      d    tot
    1  0.000  0.000  0.001  0.001
    2  0.000  0.000  0.003  0.003
    3  0.002  0.000  0.005  0.007
    4  0.000  0.000  0.003  0.003
    5  0.000  0.000  0.008  0.008
    6  0.001  0.000  0.003  0.004
    7  0.002  0.000  0.005  0.007
    8  0.001  0.000  0.003  0.004
    9  0.000  0.000  0.006  0.006
   10  0.001  0.000  0.021  0.022
   11  0.005  0.000  0.052  0.057
   12  0.000  0.001  0.037  0.038
   13  0.006  0.000  0.050  0.057
   14  0.021  0.001  0.005  0.028
   15  0.004  0.001  0.019  0.024
   16  0.000  0.001  0.038  0.039
   17  0.004  0.001  0.020  0.025
   18  0.015  0.000  0.031  0.047
   19  0.001  0.000  0.056  0.057
   20  0.009  0.000  0.035  0.045
   21  0.002  0.001  0.016  0.020
   22  0.007  0.001  0.053  0.061
   23  0.002  0.001  0.016  0.019
   24  0.028  0.001  0.011  0.039
   25  0.005  0.001  0.013  0.019
   26  0.001  0.000  0.054  0.056
   27  0.007  0.001  0.055  0.062
   28  0.000  0.000  0.003  0.003
   29  0.001  0.000  0.005  0.007
   30  0.000  0.000  0.002  0.003
   31  0.001  0.000  0.005  0.007
   32  0.001  0.001  0.004  0.006
   33  0.000  0.000  0.002  0.002
   34  0.001  0.001  0.004  0.006
   35  0.000  0.000  0.010  0.010
   36  0.000  0.000  0.001  0.001
   37  0.000  0.000  0.000  0.000
   38  0.000  0.000  0.000  0.000
tot    0.128  0.017  0.657  0.802
 
band    10 # energy   -4.87965335 # occ.  2.00000000
 
ion      s      p      d    tot
    1  0.000  0.000  0.001  0.001
    2  0.001  0.000  0.004  0.006
    3  0.000  0.000  0.002  0.003
    4  0.001  0.000  0.004  0.006
    5  0.000  0.000  0.008  0.008
    6  0.001  0.000  0.004  0.005
    7  0.000  0.000  0.002  0.002
    8  0.001  0.000  0.004  0.005
    9  0.000  0.000  0.006  0.006
   10  0.000  0.001  0.044  0.044
   11  0.016  0.001  0.020  0.037
   12  0.000  0.000  0.027  0.027
   13  0.016  0.001  0.021  0.038
   14  0.000  0.000  0.066  0.067
   15  0.011  0.001  0.027  0.039
   16  0.001  0.000  0.026  0.027
   17  0.011  0.001  0.027  0.039
   18  0.000  0.001  0.016  0.017
   19  0.004  0.000  0.026  0.031
   20  0.000  0.002  0.010  0.011
   21  0.007  0.001  0.029  0.036
   22  0.020  0.001  0.026  0.047
   23  0.007  0.001  0.029  0.037
   24  0.000  0.001  0.069  0.069
   25  0.000  0.000  0.069  0.069
   26  0.004  0.000  0.028  0.032
   27  0.021  0.001  0.025  0.046
   28  0.000  0.000  0.003  0.003
   29  0.000  0.000  0.003  0.003
   30  0.002  0.001  0.005  0.008
   31  0.000  0.000  0.003  0.003
   32  0.000  0.000  0.004  0.004
   33  0.002  0.001  0.005  0.008
   34  0.001  0.000  0.004  0.004
   35  0.000  0.000  0.010  0.010
   36  0.000  0.000  0.001  0.001
   37  0.000  0.000  0.000  0.000
   38  0.000  0.000  0.000  0.000
tot    0.128  0.017  0.657  0.802
 
band    11 # energy   -4.87751787 # occ.  2.00000000
 
ion      s      p      d    tot
    1  0.000  0.000  0.000  0.000
    2  0.000  0.000  0.006  0.006
    3  0.000  0.000  0.005  0.005
    4  0.000  0.000  0.006  0.006
    5  0.004  0.001  0.003  0.008
    6  0.000  0.000  0.005  0.006
    7  0.000  0.000  0.005  0.005
    8  0.000  0.000  0.005  0.006
    9  0.003  0.001  0.005  0.009
   10  0.006  0.001  0.013  0.020
   11  0.013  0.001  0.025  0.038
   12  0.004  0.001  0.013  0.018
   13  0.013  0.001  0.024  0.038
   14  0.014  0.001  0.022  0.037
   15  0.003  0.000  0.060  0.063
   16  0.004  0.001  0.013  0.018
   17  0.003  0.000  0.059  0.062
   18  0.002  0.000  0.058  0.060
   19  0.012  0.000  0.035  0.047
   20  0.007  0.001  0.007  0.015
   21  0.008  0.001  0.006  0.016
   22  0.000  0.000  0.049  0.050
   23  0.009  0.001  0.006  0.016
   24  0.000  0.000  0.052  0.053
   25  0.010  0.000  0.038  0.049
   26  0.012  0.000  0.035  0.047
   27  0.000  0.000  0.049  0.050
   28  0.005  0.001  0.005  0.011
   29  0.000  0.000  0.005  0.005
   30  0.000  0.000  0.005  0.005
   31  0.000  0.000  0.005  0.005
   32  0.000  0.000  0.005  0.005
   33  0.000  0.000  0.005  0.005
   34  0.000  0.000  0.005  0.005
   35  0.002  0.000  0.004  0.006
   36  0.001  0.000  0.000  0.001
   37  0.000  0.000  0.000  0.000
   38  0.000  0.000  0.000  0.000
tot    0.137  0.017  0.645  0.799
 
band    12 # energy   -4.87741604 # occ.  2.00000000
 
ion      s      p      d    tot
    1  0.000  0.000  0.010  0.010
    2  0.000  0.000  0.003  0.003
    3  0.002  0.001  0.005  0.008
    4  0.000  0.000  0.003  0.003
    5  0.000  0.000  0.001  0.001
    6  0.001  0.000  0.003  0.005
    7  0.002  0.001  0.005  0.007
    8  0.001  0.000  0.003  0.004
    9  0.000  0.000  0.005  0.005
   10  0.000  0.001  0.045  0.046
   11  0.002  0.001  0.029  0.032
   12  0.021  0.001  0.025  0.046
   13  0.002  0.000  0.030  0.033
   14  0.000  0.001  0.016  0.017
   15  0.008  0.001  0.028  0.037
   16  0.019  0.001  0.026  0.046
   17  0.009  0.001  0.024  0.033
   18  0.000  0.000  0.083  0.083
   19  0.015  0.001  0.025  0.041
   20  0.000  0.000  0.073  0.073
   21  0.013  0.001  0.020  0.034
   22  0.000  0.000  0.028  0.029
   23  0.012  0.001  0.024  0.036
   24  0.000  0.001  0.029  0.030
   25  0.000  0.001  0.027  0.028
   26  0.016  0.001  0.025  0.042
   27  0.000  0.000  0.029  0.029
   28  0.000  0.000  0.007  0.007
   29  0.001  0.000  0.004  0.006
   30  0.000  0.000  0.002  0.002
   31  0.001  0.000  0.004  0.006
   32  0.001  0.000  0.004  0.005
   33  0.000  0.000  0.002  0.002
   34  0.001  0.000  0.004  0.005
   35  0.000  0.000  0.001  0.001
   36  0.000  0.000  0.003  0.004
   37  0.000  0.000  0.000  0.000
   38  0.000  0.001  0.000  0.001
tot    0.127  0.018  0.656  0.802
 
band    13 # energy   -4.87741171 # occ.  2.00000000
 
ion      s      p      d    tot
    1  0.000  0.000  0.010  0.010
    2  0.002  0.001  0.005  0.007
    3  0.000  0.000  0.003  0.003
    4  0.002  0.001  0.004  0.007
    5  0.000  0.000  0.001  0.001
    6  0.001  0.000  0.004  0.005
    7  0.000  0.000  0.003  0.003
    8  0.001  0.000  0.004  0.006
    9  0.000  0.000  0.005  0.005
   10  0.025  0.001  0.018  0.045
   11  0.001  0.001  0.020  0.022
   12  0.006  0.001  0.040  0.047
   13  0.001  0.001  0.019  0.021
   14  0.002  0.000  0.035  0.038
   15  0.003  0.000  0.061  0.065
   16  0.008  0.001  0.038  0.047
   17  0.002  0.000  0.066  0.068
   18  0.012  0.001  0.007  0.020
   19  0.005  0.001  0.027  0.033
   20  0.018  0.001  0.004  0.023
   21  0.003  0.000  0.058  0.062
   22  0.000  0.001  0.030  0.031
   23  0.004  0.000  0.054  0.059
   24  0.000  0.000  0.026  0.026
   25  0.022  0.001  0.023  0.045
   26  0.004  0.001  0.027  0.032
   27  0.000  0.001  0.030  0.031
   28  0.000  0.000  0.007  0.007
   29  0.000  0.000  0.003  0.003
   30  0.002  0.001  0.005  0.007
   31  0.000  0.000  0.003  0.003
   32  0.001  0.000  0.003  0.004
   33  0.001  0.001  0.005  0.007
   34  0.001  0.000  0.003  0.003
   35  0.000  0.000  0.001  0.001
   36  0.000  0.000  0.003  0.004
   37  0.000  0.000  0.000  0.000
   38  0.000  0.001  0.000  0.001
tot    0.127  0.018  0.656  0.802
 
band    14 # energy   -4.87070236 # occ.  2.00000000
 
ion      s      p      d    tot
    1  0.000  0.001  0.021  0.022
    2  0.001  0.000  0.006  0.007
    3  0.001  0.000  0.006  0.007
    4  0.001  0.000  0.006  0.007
    5  0.001  0.000  0.000  0.001
    6  0.001  0.000  0.006  0.007
    7  0.001  0.000  0.006  0.007
    8  0.001  0.000  0.006  0.007
    9  0.005  0.001  0.000  0.005
   10  0.008  0.000  0.073  0.081
   11  0.002  0.001  0.035  0.037
   12  0.008  0.000  0.073  0.081
   13  0.002  0.001  0.035  0.037
   14  0.002  0.001  0.035  0.037
   15  0.010  0.001  0.015  0.026
   16  0.008  0.000  0.072  0.081
   17  0.010  0.001  0.015  0.026
   18  0.010  0.001  0.015  0.026
   19  0.004  0.001  0.018  0.023
   20  0.003  0.001  0.021  0.025
   21  0.003  0.001  0.021  0.025
   22  0.005  0.000  0.028  0.033
   23  0.003  0.001  0.021  0.025
   24  0.005  0.000  0.028  0.033
   25  0.004  0.001  0.018  0.023
   26  0.004  0.001  0.018  0.023
   27  0.005  0.000  0.028  0.033
   28  0.002  0.000  0.004  0.005
   29  0.001  0.000  0.007  0.008
   30  0.001  0.000  0.007  0.008
   31  0.001  0.000  0.007  0.008
   32  0.001  0.000  0.007  0.008
   33  0.001  0.000  0.007  0.008
   34  0.001  0.000  0.007  0.008
   35  0.003  0.000  0.000  0.003
   36  0.000  0.001  0.000  0.001
   37  0.000  0.001  0.000  0.001
   38  0.000  0.001  0.000  0.001
tot    0.116  0.017  0.674  0.807
 
band    15 # energy   -4.85065828 # occ.  2.00000000
 
ion      s      p      d    tot
    1  0.001  0.000  0.012  0.013
    2  0.003  0.000  0.012  0.015
    3  0.003  0.000  0.012  0.015
    4  0.003  0.000  0.012  0.015
    5  0.002  0.000  0.001  0.004
    6  0.003  0.000  0.012  0.015
    7  0.003  0.000  0.012  0.015
    8  0.003  0.000  0.012  0.015
    9  0.008  0.000  0.018  0.026
   10  0.003  0.000  0.015  0.017
   11  0.000  0.000  0.012  0.012
   12  0.003  0.000  0.015  0.017
   13  0.000  0.000  0.012  0.012
   14  0.000  0.000  0.012  0.012
   15  0.001  0.000  0.032  0.034
   16  0.003  0.000  0.015  0.017
   17  0.001  0.000  0.032  0.034
   18  0.001  0.000  0.032  0.034
   19  0.001  0.001  0.002  0.004
   20  0.002  0.000  0.027  0.029
   21  0.002  0.000  0.027  0.029
   22  0.004  0.000  0.053  0.057
   23  0.002  0.000  0.027  0.029
   24  0.004  0.000  0.053  0.057
   25  0.001  0.001  0.002  0.004
   26  0.001  0.001  0.002  0.004
   27  0.004  0.000  0.053  0.057
   28  0.012  0.000  0.006  0.018
   29  0.006  0.000  0.019  0.025
   30  0.006  0.000  0.019  0.025
   31  0.006  0.000  0.019  0.025
   32  0.006  0.000  0.018  0.025
   33  0.006  0.000  0.019  0.025
   34  0.006  0.000  0.018  0.025
   35  0.008  0.000  0.037  0.045
   36  0.001  0.000  0.006  0.007
   37  0.000  0.000  0.000  0.000
   38  0.000  0.000  0.000  0.000
tot    0.117  0.007  0.684  0.809
 
band    16 # energy   -4.84005576 # occ.  2.00000000
 
ion      s      p      d    tot
    1  0.000  0.000  0.017  0.017
    2  0.003  0.000  0.005  0.009
    3  0.001  0.000  0.009  0.009
    4  0.003  0.000  0.005  0.009
    5  0.000  0.000  0.005  0.005
    6  0.000  0.000  0.008  0.009
    7  0.001  0.000  0.008  0.009
    8  0.001  0.000  0.008  0.009
    9  0.000  0.000  0.009  0.010
   10  0.000  0.000  0.027  0.027
   11  0.002  0.000  0.027  0.029
   12  0.002  0.000  0.037  0.039
   13  0.002  0.000  0.026  0.028
   14  0.000  0.000  0.031  0.031
   15  0.006  0.000  0.028  0.035
   16  0.001  0.000  0.036  0.038
   17  0.007  0.000  0.021  0.028
   18  0.000  0.000  0.075  0.075
   19  0.006  0.000  0.034  0.040
   20  0.000  0.000  0.066  0.066
   21  0.005  0.000  0.021  0.026
   22  0.000  0.000  0.037  0.037
   23  0.005  0.000  0.027  0.032
   24  0.000  0.000  0.013  0.013
   25  0.000  0.000  0.062  0.063
   26  0.007  0.000  0.030  0.036
   27  0.000  0.000  0.034  0.034
   28  0.000  0.000  0.014  0.014
   29  0.000  0.000  0.009  0.009
   30  0.002  0.000  0.006  0.008
   31  0.000  0.000  0.009  0.009
   32  0.002  0.001  0.005  0.008
   33  0.002  0.000  0.006  0.009
   34  0.002  0.001  0.006  0.008
   35  0.000  0.000  0.010  0.010
   36  0.000  0.001  0.002  0.003
   37  0.000  0.000  0.000  0.000
   38  0.000  0.000  0.000  0.000
tot    0.060  0.008  0.775  0.842
 
band    17 # energy   -4.84005122 # occ.  2.00000000
 
ion      s      p      d    tot
    1  0.000  0.000  0.017  0.017
    2  0.000  0.000  0.009  0.010
    3  0.002  0.001  0.006  0.009
    4  0.000  0.000  0.009  0.010
    5  0.000  0.000  0.005  0.005
    6  0.003  0.000  0.006  0.009
    7  0.002  0.001  0.006  0.009
    8  0.002  0.000  0.006  0.009
    9  0.000  0.000  0.009  0.010
   10  0.002  0.000  0.040  0.042
   11  0.001  0.000  0.029  0.030
   12  0.000  0.000  0.030  0.030
   13  0.000  0.000  0.030  0.031
   14  0.002  0.000  0.025  0.028
   15  0.003  0.000  0.055  0.058
   16  0.001  0.000  0.031  0.032
   17  0.002  0.000  0.062  0.064
   18  0.009  0.000  0.008  0.017
   19  0.003  0.000  0.050  0.053
   20  0.007  0.000  0.010  0.017
   21  0.001  0.000  0.055  0.056
   22  0.000  0.000  0.019  0.019
   23  0.002  0.000  0.049  0.051
   24  0.000  0.000  0.043  0.043
   25  0.008  0.000  0.021  0.030
   26  0.002  0.000  0.054  0.056
   27  0.000  0.000  0.022  0.022
   28  0.000  0.000  0.014  0.014
   29  0.003  0.000  0.005  0.008
   30  0.001  0.000  0.008  0.009
   31  0.003  0.000  0.005  0.008
   32  0.000  0.000  0.009  0.009
   33  0.001  0.001  0.007  0.009
   34  0.001  0.000  0.008  0.009
   35  0.000  0.000  0.010  0.010
   36  0.000  0.001  0.002  0.003
   37  0.000  0.000  0.000  0.000
   38  0.000  0.000  0.000  0.000
tot    0.060  0.008  0.775  0.842
 
band    18 # energy   -4.83217565 # occ.  2.00000000
 
ion      s      p      d    tot
    1  0.000  0.000  0.005  0.005
    2  0.003  0.000  0.005  0.008
    3  0.001  0.000  0.009  0.010
    4  0.003  0.000  0.005  0.008
    5  0.000  0.000  0.015  0.016
    6  0.001  0.000  0.009  0.010
    7  0.001  0.000  0.009  0.010
    8  0.001  0.000  0.008  0.009
    9  0.000  0.000  0.011  0.011
   10  0.007  0.000  0.010  0.016
   11  0.002  0.000  0.056  0.059
   12  0.001  0.000  0.060  0.062
   13  0.002  0.000  0.059  0.061
   14  0.009  0.000  0.024  0.033
   15  0.000  0.000  0.021  0.021
   16  0.002  0.000  0.056  0.058
   17  0.000  0.000  0.018  0.019
   18  0.000  0.000  0.047  0.047
   19  0.000  0.000  0.025  0.026
   20  0.003  0.000  0.038  0.041
   21  0.001  0.000  0.033  0.034
   22  0.002  0.000  0.062  0.063
   23  0.001  0.000  0.034  0.035
   24  0.007  0.000  0.008  0.015
   25  0.001  0.000  0.027  0.028
   26  0.000  0.000  0.025  0.025
   27  0.002  0.000  0.057  0.060
   28  0.000  0.000  0.003  0.003
   29  0.000  0.000  0.007  0.008
   30  0.001  0.000  0.004  0.005
   31  0.000  0.000  0.007  0.007
   32  0.002  0.000  0.004  0.006
   33  0.001  0.000  0.004  0.005
   34  0.002  0.000  0.005  0.007
   35  0.000  0.000  0.007  0.007
   36  0.000  0.000  0.006  0.006
   37  0.000  0.000  0.000  0.000
   38  0.000  0.000  0.000  0.000
tot    0.054  0.007  0.784  0.845
 
band    19 # energy   -4.83217023 # occ.  2.00000000
 
ion      s      p      d    tot
    1  0.000  0.000  0.005  0.005
    2  0.000  0.000  0.010  0.010
    3  0.002  0.001  0.006  0.008
    4  0.000  0.000  0.010  0.010
    5  0.000  0.000  0.015  0.016
    6  0.002  0.000  0.007  0.009
    7  0.002  0.001  0.006  0.009
    8  0.002  0.000  0.007  0.009
    9  0.000  0.000  0.011  0.011
   10  0.000  0.000  0.074  0.074
   11  0.006  0.000  0.036  0.043
   12  0.005  0.000  0.024  0.029
   13  0.007  0.000  0.034  0.041
   14  0.000  0.000  0.069  0.069
   15  0.000  0.000  0.037  0.037
   16  0.005  0.000  0.028  0.033
   17  0.000  0.000  0.039  0.039
   18  0.000  0.000  0.010  0.010
   19  0.001  0.000  0.026  0.027
   20  0.000  0.000  0.032  0.032
   21  0.002  0.000  0.037  0.039
   22  0.006  0.000  0.023  0.029
   23  0.002  0.000  0.036  0.039
   24  0.000  0.000  0.077  0.077
   25  0.000  0.000  0.025  0.025
   26  0.001  0.000  0.026  0.027
   27  0.005  0.000  0.027  0.033
   28  0.000  0.000  0.003  0.003
   29  0.002  0.000  0.003  0.005
   30  0.001  0.000  0.007  0.008
   31  0.002  0.000  0.003  0.005
   32  0.000  0.000  0.006  0.006
   33  0.001  0.000  0.006  0.008
   34  0.000  0.000  0.006  0.006
   35  0.000  0.000  0.007  0.007
   36  0.000  0.000  0.006  0.006
   37  0.000  0.000  0.000  0.000
   38  0.000  0.000  0.000  0.000
tot    0.054  0.007  0.784  0.845
 
band    20 # energy   -4.83179257 # occ.  2.00000000
 
ion      s      p      d    tot
    1  0.002  0.000  0.000  0.002
    2  0.001  0.000  0.011  0.012
    3  0.001  0.000  0.011  0.012
    4  0.001  0.000  0.011  0.012
    5  0.007  0.000  0.014  0.021
    6  0.001  0.000  0.011  0.012
    7  0.001  0.000  0.011  0.012
    8  0.001  0.000  0.011  0.012
    9  0.000  0.001  0.008  0.009
   10  0.000  0.000  0.029  0.030
   11  0.000  0.000  0.048  0.049
   12  0.000  0.000  0.029  0.030
   13  0.000  0.000  0.049  0.049
   14  0.000  0.000  0.048  0.049
   15  0.004  0.000  0.015  0.019
   16  0.000  0.000  0.029  0.030
   17  0.004  0.000  0.015  0.019
   18  0.004  0.000  0.015  0.019
   19  0.003  0.000  0.022  0.025
   20  0.001  0.000  0.064  0.066
   21  0.001  0.000  0.064  0.066
   22  0.002  0.001  0.010  0.012
   23  0.001  0.000  0.064  0.066
   24  0.002  0.001  0.010  0.012
   25  0.003  0.000  0.022  0.025
   26  0.003  0.000  0.022  0.025
   27  0.002  0.001  0.010  0.012
   28  0.000  0.000  0.005  0.005
   29  0.003  0.000  0.011  0.014
   30  0.003  0.000  0.011  0.014
   31  0.003  0.000  0.011  0.014
   32  0.003  0.000  0.011  0.014
   33  0.003  0.000  0.011  0.014
   34  0.003  0.000  0.011  0.014
   35  0.008  0.000  0.000  0.009
   36  0.007  0.000  0.014  0.020
   37  0.000  0.000  0.000  0.000
   38  0.000  0.000  0.000  0.000
tot    0.083  0.008  0.739  0.830
 
band    21 # energy   -4.81849588 # occ.  2.00000000
 
ion      s      p      d    tot
    1  0.011  0.001  0.001  0.013
    2  0.000  0.000  0.011  0.012
    3  0.000  0.000  0.011  0.012
    4  0.000  0.000  0.011  0.012
    5  0.001  0.001  0.011  0.013
    6  0.000  0.000  0.011  0.012
    7  0.000  0.000  0.011  0.012
    8  0.000  0.000  0.011  0.012
    9  0.000  0.000  0.001  0.001
   10  0.003  0.000  0.016  0.019
   11  0.003  0.000  0.033  0.036
   12  0.003  0.000  0.016  0.019
   13  0.003  0.000  0.033  0.036
   14  0.003  0.000  0.033  0.036
   15  0.002  0.000  0.028  0.031
   16  0.003  0.000  0.016  0.019