PROCAR new format
# of k-points:   10         # of bands:  252         # of ions:   37

 k-point     1 :    0.00000000 0.00000000 0.00000000     weight = 0.01562500

band     1 # energy  -17.32736643 # occ.  2.00000000
 
ion      s      p      d    tot
    1  0.000  0.000  0.000  0.000
    2  0.000  0.000  0.000  0.000
    3  0.000  0.000  0.000  0.000
    4  0.000  0.000  0.000  0.000
    5  0.000  0.000  0.000  0.000
    6  0.000  0.000  0.000  0.000
    7  0.000  0.000  0.000  0.000
    8  0.000  0.000  0.000  0.000
    9  0.000  0.000  0.000  0.000
   10  0.000  0.000  0.000  0.000
   11  0.000  0.000  0.000  0.000
   12  0.000  0.000  0.000  0.000
   13  0.000  0.000  0.000  0.000
   14  0.000  0.000  0.000  0.000
   15  0.000  0.000  0.000  0.000
   16  0.000  0.000  0.000  0.000
   17  0.000  0.000  0.000  0.000
   18  0.000  0.000  0.000  0.000
   19  0.000  0.000  0.000  0.000
   20  0.000  0.000  0.000  0.000
   21  0.000  0.000  0.000  0.000
   22  0.000  0.000  0.000  0.000
   23  0.000  0.000  0.000  0.000
   24  0.000  0.000  0.000  0.000
   25  0.000  0.000  0.000  0.000
   26  0.000  0.000  0.000  0.000
   27  0.000  0.000  0.000  0.000
   28  0.000  0.000  0.000  0.000
   29  0.000  0.000  0.000  0.000
   30  0.000  0.000  0.000  0.000
   31  0.000  0.000  0.000  0.000
   32  0.000  0.000  0.000  0.000
   33  0.000  0.000  0.000  0.000
   34  0.000  0.000  0.000  0.000
   35  0.000  0.000  0.000  0.000
   36  0.033  0.033  0.064  0.130
   37  0.753  0.014  0.000  0.767
tot    0.787  0.047  0.064  0.898
 
band     2 # energy   -8.87231939 # occ.  2.00000000
 
ion      s      p      d    tot
    1  0.006  0.001  0.000  0.007
    2  0.006  0.001  0.000  0.007
    3  0.006  0.001  0.000  0.007
    4  0.006  0.001  0.000  0.007
    5  0.006  0.001  0.000  0.007
    6  0.006  0.001  0.000  0.007
    7  0.006  0.001  0.000  0.007
    8  0.006  0.001  0.000  0.007
    9  0.006  0.001  0.000  0.007
   10  0.023  0.000  0.000  0.023
   11  0.023  0.000  0.000  0.023
   12  0.023  0.000  0.000  0.023
   13  0.023  0.000  0.000  0.023
   14  0.023  0.000  0.000  0.023
   15  0.023  0.000  0.000  0.023
   16  0.023  0.000  0.000  0.023
   17  0.023  0.000  0.000  0.023
   18  0.023  0.000  0.000  0.023
   19  0.025  0.000  0.000  0.025
   20  0.026  0.000  0.000  0.026
   21  0.026  0.000  0.000  0.026
   22  0.025  0.000  0.000  0.025
   23  0.026  0.000  0.000  0.026
   24  0.025  0.000  0.000  0.025
   25  0.025  0.000  0.000  0.025
   26  0.025  0.000  0.000  0.025
   27  0.025  0.000  0.000  0.025
   28  0.008  0.001  0.000  0.008
   29  0.008  0.001  0.000  0.009
   30  0.008  0.001  0.000  0.009
   31  0.008  0.001  0.000  0.009
   32  0.008  0.001  0.000  0.009
   33  0.008  0.001  0.000  0.009
   34  0.008  0.001  0.000  0.009
   35  0.008  0.001  0.000  0.008
   36  0.017  0.002  0.000  0.019
   37  0.001  0.000  0.000  0.001
tot    0.570  0.017  0.001  0.588
 
band     3 # energy   -7.62761491 # occ.  2.00000000
 
ion      s      p      d    tot
    1  0.017  0.001  0.000  0.019
    2  0.017  0.001  0.000  0.018
    3  0.017  0.001  0.000  0.018
    4  0.017  0.001  0.000  0.018
    5  0.017  0.001  0.000  0.018
    6  0.017  0.001  0.000  0.018
    7  0.017  0.001  0.000  0.018
    8  0.017  0.001  0.000  0.018
    9  0.017  0.001  0.000  0.019
   10  0.012  0.002  0.001  0.014
   11  0.011  0.002  0.001  0.014
   12  0.012  0.002  0.001  0.014
   13  0.011  0.002  0.001  0.014
   14  0.011  0.002  0.001  0.014
   15  0.012  0.002  0.001  0.014
   16  0.012  0.002  0.001  0.014
   17  0.012  0.002  0.001  0.014
   18  0.012  0.002  0.001  0.014
   19  0.007  0.002  0.000  0.010
   20  0.008  0.003  0.000  0.011
   21  0.008  0.003  0.000  0.011
   22  0.007  0.002  0.000  0.010
   23  0.008  0.003  0.000  0.011
   24  0.007  0.002  0.000  0.010
   25  0.007  0.002  0.000  0.010
   26  0.007  0.002  0.000  0.010
   27  0.007  0.002  0.000  0.010
   28  0.017  0.001  0.001  0.018
   29  0.019  0.001  0.001  0.021
   30  0.019  0.001  0.001  0.021
   31  0.019  0.001  0.001  0.021
   32  0.019  0.001  0.001  0.021
   33  0.019  0.001  0.001  0.021
   34  0.019  0.001  0.001  0.021
   35  0.017  0.001  0.001  0.018
   36  0.042  0.002  0.006  0.050
   37  0.001  0.001  0.000  0.002
tot    0.519  0.055  0.024  0.597
 
band     4 # energy   -6.08586384 # occ.  2.00000000
 
ion      s      p      d    tot
    1  0.014  0.000  0.004  0.018
    2  0.014  0.000  0.004  0.019
    3  0.014  0.000  0.004  0.019
    4  0.014  0.000  0.004  0.019
    5  0.012  0.000  0.004  0.017
    6  0.014  0.000  0.004  0.019
    7  0.014  0.000  0.004  0.019
    8  0.014  0.000  0.004  0.019
    9  0.017  0.000  0.004  0.021
   10  0.002  0.004  0.001  0.006
   11  0.003  0.004  0.001  0.007
   12  0.002  0.004  0.001  0.006
   13  0.003  0.004  0.001  0.007
   14  0.003  0.004  0.001  0.007
   15  0.001  0.003  0.001  0.005
   16  0.002  0.004  0.001  0.006
   17  0.001  0.003  0.001  0.005
   18  0.001  0.003  0.001  0.005
   19  0.006  0.002  0.004  0.012
   20  0.011  0.003  0.007  0.020
   21  0.011  0.003  0.007  0.020
   22  0.004  0.002  0.004  0.010
   23  0.011  0.003  0.007  0.020
   24  0.004  0.002  0.004  0.010
   25  0.006  0.002  0.004  0.012
   26  0.006  0.002  0.004  0.012
   27  0.004  0.002  0.004  0.010
   28  0.010  0.000  0.006  0.016
   29  0.016  0.000  0.009  0.026
   30  0.016  0.000  0.009  0.026
   31  0.016  0.000  0.009  0.026
   32  0.016  0.000  0.009  0.026
   33  0.016  0.000  0.009  0.026
   34  0.016  0.000  0.009  0.026
   35  0.012  0.000  0.006  0.018
   36  0.024  0.000  0.109  0.133
   37  0.000  0.008  0.000  0.008
tot    0.354  0.062  0.261  0.678
 
band     5 # energy   -5.96340688 # occ.  2.00000000
 
ion      s      p      d    tot
    1  0.000  0.000  0.000  0.000
    2  0.001  0.001  0.002  0.004
    3  0.001  0.001  0.002  0.004
    4  0.001  0.001  0.002  0.004
    5  0.015  0.002  0.000  0.017
    6  0.001  0.001  0.002  0.004
    7  0.001  0.001  0.002  0.004
    8  0.001  0.001  0.002  0.004
    9  0.003  0.001  0.001  0.006
   10  0.001  0.003  0.006  0.009
   11  0.015  0.006  0.003  0.023
   12  0.001  0.003  0.006  0.009
   13  0.015  0.006  0.003  0.023
   14  0.015  0.006  0.003  0.023
   15  0.016  0.002  0.006  0.023
   16  0.001  0.003  0.006  0.009
   17  0.016  0.002  0.006  0.023
   18  0.016  0.002  0.006  0.023
   19  0.011  0.000  0.011  0.022
   20  0.028  0.009  0.007  0.043
   21  0.028  0.009  0.007  0.043
   22  0.011  0.007  0.003  0.021
   23  0.028  0.009  0.007  0.043
   24  0.011  0.007  0.003  0.021
   25  0.011  0.000  0.011  0.022
   26  0.011  0.000  0.011  0.022
   27  0.011  0.007  0.003  0.021
   28  0.004  0.001  0.001  0.005
   29  0.000  0.002  0.005  0.007
   30  0.000  0.002  0.005  0.007
   31  0.000  0.002  0.005  0.007
   32  0.000  0.002  0.005  0.007
   33  0.000  0.002  0.005  0.007
   34  0.000  0.002  0.005  0.007
   35  0.009  0.002  0.000  0.010
   36  0.077  0.006  0.027  0.110
   37  0.008  0.031  0.000  0.039
tot    0.365  0.138  0.178  0.682
 
band     6 # energy   -5.93117184 # occ.  2.00000000
 
ion      s      p      d    tot
    1  0.000  0.002  0.004  0.006
    2  0.007  0.002  0.002  0.010
    3  0.001  0.001  0.001  0.003
    4  0.007  0.002  0.002  0.010
    5  0.000  0.002  0.003  0.004
    6  0.002  0.001  0.002  0.005
    7  0.001  0.001  0.001  0.003
    8  0.003  0.001  0.002  0.005
    9  0.000  0.000  0.002  0.002
   10  0.047  0.004  0.003  0.055
   11  0.006  0.008  0.004  0.018
   12  0.012  0.002  0.010  0.023
   13  0.006  0.008  0.004  0.018
   14  0.024  0.001  0.005  0.030
   15  0.001  0.004  0.006  0.010
   16  0.012  0.002  0.010  0.024
   17  0.001  0.004  0.006  0.010
   18  0.004  0.002  0.003  0.009
   19  0.006  0.010  0.003  0.019
   20  0.071  0.003  0.007  0.082
   21  0.017  0.002  0.014  0.034
   22  0.002  0.005  0.008  0.014
   23  0.018  0.002  0.014  0.035
   24  0.008  0.003  0.003  0.013
   25  0.025  0.000  0.007  0.031
   26  0.006  0.010  0.003  0.019
   27  0.002  0.004  0.008  0.014
   28  0.000  0.003  0.004  0.007
   29  0.012  0.004  0.005  0.021
   30  0.005  0.001  0.003  0.009
   31  0.012  0.004  0.004  0.021
   32  0.002  0.001  0.004  0.007
   33  0.005  0.001  0.003  0.010
   34  0.002  0.002  0.004  0.008
   35  0.000  0.000  0.003  0.003
   36  0.000  0.005  0.065  0.070
   37  0.000  0.002  0.000  0.002
tot    0.327  0.109  0.229  0.665
 
band     7 # energy   -5.93110334 # occ.  2.00000000
 
ion      s      p      d    tot
    1  0.000  0.002  0.004  0.006
    2  0.000  0.001  0.001  0.002
    3  0.006  0.002  0.002  0.009
    4  0.000  0.001  0.001  0.002
    5  0.000  0.002  0.003  0.004
    6  0.004  0.001  0.001  0.007
    7  0.006  0.002  0.002  0.009
    8  0.004  0.001  0.001  0.007
    9  0.000  0.000  0.002  0.002
   10  0.000  0.001  0.012  0.013
   11  0.018  0.003  0.005  0.026
   12  0.036  0.003  0.005  0.045
   13  0.018  0.003  0.005  0.026
   14  0.000  0.011  0.004  0.014
   15  0.003  0.003  0.004  0.009
   16  0.035  0.003  0.005  0.044
   17  0.003  0.003  0.004  0.009
   18  0.000  0.005  0.007  0.011
   19  0.018  0.003  0.005  0.027
   20  0.000  0.002  0.017  0.019
   21  0.054  0.003  0.010  0.067
   22  0.006  0.003  0.004  0.014
   23  0.053  0.003  0.010  0.066
   24  0.000  0.005  0.010  0.015
   25  0.000  0.013  0.001  0.014
   26  0.019  0.003  0.005  0.027
   27  0.006  0.003  0.005  0.014
   28  0.000  0.003  0.004  0.007
   29  0.000  0.001  0.003  0.004
   30  0.008  0.003  0.005  0.016
   31  0.000  0.001  0.004  0.004
   32  0.011  0.003  0.004  0.018
   33  0.008  0.003  0.005  0.016
   34  0.011  0.003  0.004  0.017
   35  0.000  0.000  0.003  0.003
   36  0.000  0.005  0.065  0.070
   37  0.000  0.002  0.000  0.002
tot    0.327  0.109  0.229  0.665
 
band     8 # energy   -5.87772204 # occ.  2.00000000
 
ion      s      p      d    tot
    1  0.000  0.001  0.002  0.002
    2  0.008  0.002  0.002  0.012
    3  0.001  0.001  0.002  0.004
    4  0.008  0.002  0.002  0.012
    5  0.000  0.001  0.003  0.004
    6  0.003  0.001  0.002  0.006
    7  0.001  0.001  0.002  0.004
    8  0.003  0.001  0.002  0.006
    9  0.000  0.003  0.004  0.007
   10  0.000  0.010  0.002  0.013
   11  0.021  0.003  0.005  0.029
   12  0.002  0.003  0.004  0.009
   13  0.021  0.003  0.005  0.029
   14  0.000  0.000  0.012  0.013
   15  0.036  0.003  0.006  0.045
   16  0.002  0.003  0.004  0.009
   17  0.036  0.003  0.006  0.045
   18  0.000  0.007  0.008  0.015
   19  0.029  0.004  0.006  0.038
   20  0.000  0.014  0.001  0.015
   21  0.001  0.004  0.004  0.010
   22  0.043  0.004  0.006  0.053
   23  0.001  0.004  0.004  0.010
   24  0.000  0.009  0.008  0.017
   25  0.000  0.000  0.017  0.017
   26  0.029  0.004  0.006  0.038
   27  0.044  0.004  0.006  0.054
   28  0.000  0.002  0.005  0.007
   29  0.016  0.003  0.004  0.023
   30  0.003  0.002  0.004  0.010
   31  0.016  0.003  0.004  0.023
   32  0.005  0.001  0.004  0.010
   33  0.003  0.002  0.004  0.010
   34  0.005  0.001  0.004  0.010
   35  0.000  0.005  0.006  0.011
   36  0.000  0.001  0.031  0.032
   37  0.000  0.000  0.000  0.000
tot    0.338  0.114  0.194  0.647
 
band     9 # energy   -5.87766969 # occ.  2.00000000
 
ion      s      p      d    tot
    1  0.000  0.001  0.002  0.002
    2  0.000  0.001  0.002  0.002
    3  0.007  0.002  0.002  0.010
    4  0.000  0.001  0.002  0.002
    5  0.000  0.001  0.003  0.004
    6  0.005  0.001  0.002  0.008
    7  0.007  0.002  0.002  0.010
    8  0.005  0.001  0.002  0.008
    9  0.000  0.003  0.004  0.007
   10  0.003  0.000  0.005  0.008
   11  0.007  0.001  0.010  0.018
   12  0.001  0.008  0.003  0.011
   13  0.007  0.001  0.010  0.018
   14  0.028  0.004  0.002  0.034
   15  0.012  0.006  0.008  0.025
   16  0.001  0.008  0.003  0.011
   17  0.012  0.006  0.008  0.025
   18  0.048  0.002  0.005  0.055
   19  0.010  0.001  0.013  0.024
   20  0.002  0.001  0.005  0.008
   21  0.000  0.010  0.002  0.013
   22  0.015  0.007  0.007  0.029
   23  0.000  0.010  0.002  0.013
   24  0.058  0.002  0.005  0.066
   25  0.039  0.005  0.002  0.046
   26  0.010  0.001  0.013  0.024
   27  0.014  0.007  0.007  0.029
   28  0.000  0.002  0.005  0.007
   29  0.000  0.001  0.004  0.005
   30  0.013  0.002  0.003  0.018
   31  0.000  0.001  0.004  0.005
   32  0.011  0.003  0.004  0.018
   33  0.013  0.002  0.003  0.018
   34  0.011  0.003  0.004  0.018
   35  0.000  0.005  0.006  0.011
   36  0.000  0.001  0.031  0.032
   37  0.000  0.000  0.000  0.000
tot    0.338  0.114  0.194  0.647
 
band    10 # energy   -5.83738408 # occ.  2.00000000
 
ion      s      p      d    tot
    1  0.020  0.003  0.001  0.024
    2  0.000  0.002  0.004  0.006
    3  0.000  0.002  0.004  0.006
    4  0.000  0.002  0.004  0.006
    5  0.001  0.000  0.000  0.002
    6  0.000  0.002  0.004  0.006
    7  0.000  0.002  0.004  0.006
    8  0.000  0.002  0.004  0.006
    9  0.008  0.001  0.000  0.010
   10  0.029  0.006  0.006  0.040
   11  0.005  0.000  0.011  0.017
   12  0.029  0.006  0.006  0.040
   13  0.005  0.000  0.011  0.017
   14  0.005  0.000  0.011  0.017
   15  0.012  0.008  0.003  0.023
   16  0.029  0.006  0.006  0.040
   17  0.012  0.008  0.003  0.023
   18  0.012  0.008  0.003  0.023
   19  0.024  0.009  0.002  0.035
   20  0.000  0.003  0.009  0.012
   21  0.000  0.003  0.009  0.012
   22  0.025  0.002  0.010  0.036
   23  0.000  0.003  0.009  0.012
   24  0.025  0.002  0.010  0.037
   25  0.024  0.009  0.002  0.035
   26  0.024  0.009  0.002  0.035
   27  0.025  0.002  0.010  0.036
   28  0.022  0.003  0.000  0.025
   29  0.000  0.002  0.004  0.006
   30  0.000  0.002  0.004  0.006
   31  0.000  0.002  0.004  0.006
   32  0.000  0.002  0.004  0.006
   33  0.000  0.002  0.004  0.006
   34  0.000  0.002  0.004  0.006
   35  0.013  0.002  0.001  0.016
   36  0.001  0.000  0.000  0.001
   37  0.000  0.000  0.000  0.000
tot    0.347  0.117  0.175  0.639
 
band    11 # energy   -5.35078682 # occ.  2.00000000
 
ion      s      p      d    tot
    1  0.013  0.000  0.004  0.017
    2  0.004  0.002  0.008  0.014
    3  0.004  0.002  0.008  0.014
    4  0.004  0.002  0.008  0.014
    5  0.006  0.004  0.007  0.017
    6  0.004  0.002  0.008  0.014
    7  0.004  0.002  0.008  0.014
    8  0.004  0.002  0.008  0.014
    9  0.024  0.001  0.002  0.026
   10  0.001  0.001  0.014  0.017
   11  0.027  0.003  0.005  0.035
   12  0.001  0.001  0.014  0.017
   13  0.027  0.003  0.005  0.035
   14  0.027  0.003  0.005  0.035
   15  0.001  0.001  0.014  0.016
   16  0.001  0.001  0.014  0.017
   17  0.001  0.001  0.014  0.016
   18  0.001  0.001  0.014  0.016
   19  0.000  0.000  0.001  0.001
   20  0.001  0.005  0.025  0.031
   21  0.001  0.005  0.025  0.031
   22  0.001  0.000  0.006  0.007
   23  0.001  0.005  0.025  0.031
   24  0.001  0.000  0.006  0.007
   25  0.000  0.000  0.001  0.001
   26  0.000  0.000  0.001  0.001
   27  0.001  0.000  0.006  0.007
   28  0.001  0.000  0.000  0.001
   29  0.000  0.000  0.001  0.001
   30  0.000  0.000  0.001  0.001
   31  0.000  0.000  0.001  0.001
   32  0.000  0.000  0.001  0.001
   33  0.000  0.000  0.001  0.001
   34  0.000  0.000  0.001  0.001
   35  0.000  0.000  0.000  0.000
   36  0.018  0.000  0.181  0.199
   37  0.014  0.095  0.000  0.109
tot    0.194  0.143  0.448  0.784
 
band    12 # energy   -5.25163325 # occ.  2.00000000
 
ion      s      p      d    tot
    1  0.000  0.002  0.007  0.009
    2  0.014  0.003  0.004  0.021
    3  0.001  0.001  0.003  0.006
    4  0.014  0.003  0.004  0.021
    5  0.000  0.000  0.007  0.007
    6  0.008  0.002  0.004  0.014
    7  0.001  0.001  0.003  0.006
    8  0.008  0.002  0.004  0.014
    9  0.000  0.005  0.007  0.012
   10  0.000  0.006  0.006  0.012
   11  0.007  0.002  0.006  0.015
   12  0.005  0.002  0.006  0.012
   13  0.007  0.002  0.006  0.015
   14  0.000  0.002  0.015  0.016
   15  0.023  0.002  0.006  0.032
   16  0.005  0.002  0.006  0.012
   17  0.023  0.002  0.006  0.032
   18  0.000  0.001  0.015  0.016
   19  0.002  0.004  0.007  0.013
   20  0.000  0.002  0.025  0.027
   21  0.000  0.001  0.013  0.014
   22  0.003  0.003  0.008  0.014
   23  0.000  0.001  0.013  0.014
   24  0.000  0.000  0.024  0.024
   25  0.000  0.000  0.004  0.004
   26  0.002  0.004  0.007  0.013
   27  0.003  0.003  0.008  0.014
   28  0.000  0.003  0.004  0.007
   29  0.022  0.002  0.012  0.036
   30  0.000  0.003  0.012  0.015
   31  0.022  0.002  0.012  0.036
   32  0.016  0.001  0.012  0.029
   33  0.000  0.003  0.012  0.015
   34  0.016  0.001  0.012  0.029
   35  0.000  0.004  0.005  0.009
   36  0.000  0.000  0.151  0.151
   37  0.000  0.001  0.000  0.001
tot    0.203  0.078  0.456  0.737
 
band    13 # energy   -5.25160269 # occ.  2.00000000
 
ion      s      p      d    tot
    1  0.000  0.002  0.007  0.009
    2  0.001  0.001  0.004  0.006
    3  0.014  0.003  0.004  0.021
    4  0.001  0.001  0.004  0.006
    5  0.000  0.000  0.007  0.007
    6  0.008  0.002  0.003  0.013
    7  0.014  0.003  0.004  0.021
    8  0.008  0.002  0.003  0.013
    9  0.000  0.005  0.007  0.012
   10  0.006  0.000  0.006  0.012
   11  0.002  0.002  0.012  0.016
   12  0.002  0.004  0.006  0.012
   13  0.002  0.002  0.012  0.016
   14  0.009  0.002  0.003  0.015
   15  0.008  0.002  0.012  0.021
   16  0.002  0.004  0.006  0.012
   17  0.008  0.002  0.012  0.021
   18  0.031  0.003  0.003  0.037
   19  0.001  0.001  0.005  0.007
   20  0.000  0.000  0.010  0.010
   21  0.000  0.001  0.021  0.023
   22  0.001  0.001  0.019  0.021
   23  0.000  0.001  0.021  0.023
   24  0.004  0.004  0.002  0.011
   25  0.002  0.005  0.008  0.016
   26  0.001  0.001  0.005  0.007
   27  0.001  0.001  0.019  0.021
   28  0.000  0.003  0.004  0.007
   29  0.004  0.002  0.012  0.018
   30  0.025  0.001  0.012  0.038
   31  0.004  0.002  0.012  0.018
   32  0.010  0.003  0.012  0.024
   33  0.025  0.001  0.012  0.038
   34  0.010  0.003  0.012  0.024
   35  0.000  0.004  0.005  0.009
   36  0.000  0.000  0.151  0.151
   37  0.000  0.001  0.000  0.001
tot    0.203  0.078  0.456  0.737
 
band    14 # energy   -5.18547480 # occ.  2.00000000
 
ion      s      p      d    tot
    1  0.000  0.002  0.007  0.009
    2  0.004  0.002  0.010  0.016
    3  0.004  0.002  0.010  0.016
    4  0.004  0.002  0.010  0.016
    5  0.043  0.001  0.003  0.047
    6  0.004  0.002  0.010  0.016
    7  0.004  0.002  0.010  0.016
    8  0.004  0.002  0.010  0.016
    9  0.000  0.002  0.008  0.010
   10  0.010  0.001  0.016  0.027
   11  0.001  0.003  0.017  0.021
   12  0.010  0.001  0.016  0.027
   13  0.001  0.003  0.017  0.021
   14  0.001  0.003  0.017  0.021
   15  0.016  0.000  0.018  0.034
   16  0.010  0.001  0.016  0.027
   17  0.016  0.000  0.018  0.034
   18  0.016  0.000  0.018  0.034
   19  0.007  0.002  0.010  0.019
   20  0.000  0.001  0.019  0.020
   21  0.000  0.001  0.019  0.020
   22  0.003  0.001  0.014  0.018
   23  0.000  0.001  0.019  0.020
   24  0.003  0.001  0.014  0.018
   25  0.007  0.002  0.010  0.019
   26  0.007  0.002  0.010  0.019
   27  0.003  0.001  0.014  0.018
   28  0.006  0.001  0.001  0.009
   29  0.000  0.003  0.011  0.014
   30  0.000  0.003  0.011  0.014
   31  0.000  0.003  0.011  0.014
   32  0.000  0.003  0.011  0.014
   33  0.000  0.003  0.011  0.014
   34  0.000  0.003  0.011  0.014
   35  0.005  0.001  0.001  0.007
   36  0.056  0.001  0.017  0.073
   37  0.001  0.001  0.000  0.002
tot    0.245  0.061  0.445  0.751
 
band    15 # energy   -5.16761584 # occ.  2.00000000
 
ion      s      p      d    tot
    1  0.000  0.004  0.010  0.014
    2  0.021  0.004  0.005  0.031
    3  0.002  0.002  0.005  0.009
    4  0.021  0.004  0.005  0.031
    5  0.000  0.006  0.010  0.016
    6  0.010  0.003  0.006  0.018
    7  0.002  0.002  0.005  0.009
    8  0.010  0.003  0.006  0.018
    9  0.000  0.000  0.011  0.011
   10  0.029  0.004  0.006  0.040
   11  0.006  0.004  0.015  0.025
   12  0.007  0.001  0.019  0.027
   13  0.006  0.004  0.015  0.025
   14  0.023  0.002  0.006  0.031
   15  0.000  0.004  0.012  0.016
   16  0.007  0.001  0.019  0.028
   17  0.000  0.004  0.012  0.016
   18  0.000  0.001  0.008  0.009
   19  0.000  0.001  0.016  0.017
   20  0.011  0.008  0.003  0.022
   21  0.003  0.002  0.019  0.024
   22  0.000  0.001  0.007  0.008
   23  0.003  0.002  0.019  0.024
   24  0.001  0.002  0.010  0.013
   25  0.001  0.001  0.003  0.005
   26  0.000  0.001  0.016  0.017
   27  0.000  0.001  0.007  0.008
   28  0.000  0.002  0.005  0.007
   29  0.011  0.003  0.007  0.020
   30  0.001  0.001  0.004  0.006
   31  0.011  0.003  0.006  0.020
   32  0.004  0.002  0.007  0.013
   33  0.001  0.001  0.004  0.006
   34  0.004  0.002  0.007  0.013
   35  0.000  0.000  0.005  0.005
   36  0.000  0.005  0.113  0.118
   37  0.000  0.010  0.000  0.010
tot    0.199  0.099  0.431  0.729
 
band    16 # energy   -5.16754684 # occ.  2.00000000
 
ion      s      p      d    tot
    1  0.000  0.004  0.010  0.014
    2  0.001  0.002  0.005  0.008
    3  0.020  0.004  0.006  0.030
    4  0.001  0.002  0.005  0.008
    5  0.000  0.006  0.010  0.016
    6  0.013  0.003  0.005  0.021
    7  0.020  0.004  0.006  0.030
    8  0.013  0.003  0.005  0.021
    9  0.000  0.000  0.011  0.011
   10  0.000  0.000  0.023  0.023
   11  0.017  0.003  0.009  0.029
   12  0.022  0.003  0.010  0.036
   13  0.017  0.003  0.009  0.029
   14  0.000  0.004  0.018  0.022
   15  0.000  0.002  0.009  0.011
   16  0.022  0.003  0.010  0.036
   17  0.000  0.002  0.009  0.011
   18  0.000  0.005  0.013  0.018
   19  0.001  0.001  0.007  0.009
   20  0.000  0.000  0.024  0.025
   21  0.008  0.006  0.008  0.023
   22  0.001  0.002  0.009  0.011
   23  0.008  0.006  0.008  0.023
   24  0.000  0.001  0.006  0.006
   25  0.000  0.001  0.021  0.022
   26  0.001  0.001  0.007  0.009
   27  0.001  0.001  0.009  0.011
   28  0.000  0.002  0.005  0.007
   29  0.000  0.001  0.005  0.006
   30  0.009  0.003  0.008  0.020
   31  0.000  0.001  0.005  0.006
   32  0.007  0.002  0.005  0.013
   33  0.009  0.003  0.008  0.020
   34  0.007  0.002  0.005  0.013
   35  0.000  0.000  0.005  0.005
   36  0.000  0.005  0.113  0.118
   37  0.000  0.010  0.000  0.010
tot    0.199  0.099  0.431  0.729
 
band    17 # energy   -5.07251822 # occ.  2.00000000
 
ion      s      p      d    tot
    1  0.033  0.003  0.000  0.037
    2  0.000  0.003  0.010  0.013
    3  0.000  0.003  0.010  0.013
    4  0.000  0.003  0.010  0.013
    5  0.000  0.000  0.000  0.000
    6  0.000  0.003  0.010  0.013
    7  0.000  0.003  0.010  0.013
    8  0.000  0.003  0.010  0.013
    9  0.031  0.004  0.001  0.036
   10  0.009  0.003  0.010  0.023
   11  0.001  0.000  0.015  0.016
   12  0.009  0.003  0.010  0.023
   13  0.001  0.000  0.015  0.016
   14  0.001  0.000  0.015  0.016
   15  0.008  0.004  0.016  0.028
   16  0.009  0.003  0.010  0.023
   17  0.008  0.004  0.016  0.028
   18  0.008  0.004  0.016  0.028
   19  0.004  0.003  0.019  0.027
   20  0.000  0.000  0.013  0.014
   21  0.000  0.000  0.013  0.014
   22  0.011  0.004  0.010  0.024
   23  0.000  0.000  0.013  0.014
   24  0.011  0.004  0.010  0.024
   25  0.004  0.003  0.019  0.027
   26  0.004  0.003  0.019  0.027
   27  0.011  0.004  0.010  0.024
   28  0.036  0.003  0.000  0.039
   29  0.000  0.003  0.010  0.014
   30  0.000  0.003  0.010  0.014
   31  0.000  0.003  0.010  0.014
   32  0.000  0.003  0.010  0.014
   33  0.000  0.003  0.010  0.014
   34  0.000  0.003  0.010  0.014
   35  0.030  0.004  0.001  0.035
   36  0.000  0.000  0.000  0.000
   37  0.000  0.000  0.000  0.000
tot    0.230  0.095  0.379  0.704
 
band    18 # energy   -4.77868865 # occ.  2.00000000
 
ion      s      p      d    tot
    1  0.004  0.000  0.001  0.006
    2  0.000  0.000  0.003  0.004
    3  0.000  0.000  0.003  0.004
    4  0.000  0.000  0.003  0.004
    5  0.003  0.001  0.002  0.006
    6  0.000  0.000  0.003  0.004
    7  0.000  0.000  0.003  0.004
    8  0.000  0.000  0.003  0.004
    9  0.002  0.000  0.001  0.003
   10  0.001  0.000  0.011  0.012
   11  0.002  0.001  0.012  0.016
   12  0.001  0.000  0.011  0.012
   13  0.002  0.001  0.012  0.016
   14  0.002  0.001  0.012  0.016
   15  0.000  0.000  0.008  0.008
   16  0.001  0.000  0.011  0.012
   17  0.000  0.000  0.008  0.008
   18  0.000  0.000  0.008  0.008
   19  0.001  0.000  0.016  0.017
   20  0.009  0.000  0.010  0.019
   21  0.009  0.000  0.010  0.019
   22  0.001  0.002  0.028  0.031
   23  0.009  0.000  0.010  0.019
   24  0.001  0.002  0.028  0.031
   25  0.001  0.000  0.016  0.017
   26  0.001  0.000  0.016  0.017
   27  0.001  0.002  0.028  0.031
   28  0.011  0.000  0.005  0.016
   29  0.002  0.003  0.017  0.022
   30  0.002  0.003  0.017  0.022
   31  0.002  0.003  0.017  0.022
   32  0.002  0.003  0.017  0.022
   33  0.002  0.003  0.017  0.022
   34  0.002  0.003  0.017  0.022
   35  0.031  0.000  0.008  0.039
   36  0.000  0.007  0.179  0.186
   37  0.011  0.105  0.000  0.115
tot    0.116  0.144  0.572  0.832
 
band    19 # energy   -4.66920370 # occ.  2.00000000
 
ion      s      p      d    tot
    1  0.000  0.001  0.020  0.021
    2  0.017  0.002  0.006  0.024
    3  0.006  0.001  0.006  0.013
    4  0.016  0.002  0.006  0.024
    5  0.000  0.001  0.011  0.012
    6  0.003  0.001  0.006  0.010
    7  0.005  0.001  0.006  0.012
    8  0.003  0.001  0.006  0.010
    9  0.000  0.004  0.005  0.009
   10  0.000  0.000  0.049  0.049
   11  0.000  0.003  0.014  0.017
   12  0.000  0.000  0.017  0.017
   13  0.000  0.003  0.013  0.017
   14  0.000  0.000  0.002  0.002
   15  0.001  0.005  0.013  0.019
   16  0.000  0.000  0.015  0.015
   17  0.001  0.005  0.014  0.020
   18  0.000  0.000  0.031  0.031
   19  0.010  0.001  0.007  0.019
   20  0.000  0.001  0.040  0.040
   21  0.000  0.000  0.018  0.018
   22  0.008  0.001  0.015  0.023
   23  0.000  0.000  0.016  0.017
   24  0.000  0.001  0.005  0.006
   25  0.000  0.000  0.027  0.028
   26  0.010  0.001  0.008  0.019
   27  0.009  0.001  0.015  0.024
   28  0.000  0.000  0.002  0.003
   29  0.001  0.001  0.019  0.021
   30  0.001  0.001  0.013  0.015
   31  0.001  0.001  0.019  0.021
   32  0.004  0.002  0.015  0.021
   33  0.002  0.001  0.013  0.015
   34  0.004  0.002  0.015  0.021
   35  0.000  0.000  0.007  0.007
   36  0.000  0.001  0.163  0.164
   37  0.000  0.007  0.000  0.007
tot    0.103  0.052  0.655  0.810
 
band    20 # energy   -4.66918064 # occ.  2.00000000
 
ion      s      p      d    tot
    1  0.000  0.001  0.020  0.021
    2  0.000  0.001  0.006  0.007
    3  0.011  0.002  0.006  0.019
    4  0.000  0.001  0.006  0.007
    5  0.000  0.001  0.011  0.012
    6  0.013  0.002  0.006  0.021
    7  0.012  0.002  0.006  0.019
    8  0.014  0.002  0.006  0.021
    9  0.000  0.004  0.005  0.009
   10  0.000  0.000  0.005  0.005
   11  0.000  0.001  0.005  0.006
   12  0.000  0.000  0.037  0.037
   13  0.000  0.001  0.006  0.007
   14  0.001  0.004  0.017  0.022
   15  0.000  0.002  0.026  0.028
   16  0.000  0.000  0.039  0.039
   17  0.000  0.002  0.025  0.027
   18  0.001  0.007  0.008  0.016
   19  0.003  0.001  0.021  0.025
   20  0.000  0.000  0.010  0.010
   21  0.000  0.000  0.032  0.032
   22  0.003  0.001  0.008  0.012
   23  0.000  0.000  0.033  0.033
   24  0.012  0.000  0.018  0.030
   25  0.013  0.001  0.001  0.016
   26  0.004  0.001  0.020  0.024
   27  0.003  0.001  0.008  0.011
   28  0.000  0.000  0.002  0.003
   29  0.004  0.001  0.012  0.017
   30  0.003  0.001  0.018  0.023
   31  0.004  0.001  0.012  0.017
   32  0.000  0.000  0.016  0.017
   33  0.003  0.001  0.019  0.023
   34  0.000  0.000  0.016  0.017
   35  0.000  0.000  0.007  0.007
   36  0.000  0.001  0.163  0.164
   37  0.000  0.007  0.000  0.007
tot    0.103  0.052  0.654  0.810
 
band    21 # energy   -4.60823876 # occ.  2.00000000
 
ion      s      p      d    tot
    1  0.000  0.000  0.000  0.001
    2  0.001  0.000  0.001  0.002
    3  0.001  0.000  0.001  0.001
    4  0.001  0.000  0.001  0.002
    5  0.000  0.000  0.002  0.002
    6  0.000  0.000  0.001  0.001
    7  0.001  0.000  0.001  0.001
    8  0.000  0.000  0.001  0.001
    9  0.000  0.000  0.002  0.002
   10  0.000  0.001  0.001  0.002
   11  0.000  0.000  0.005  0.005
   12  0.000  0.000  0.004  0.004
   13  0.000  0.000  0.005  0.005
   14  0.000  0.000  0.001  0.002
   15  0.000  0.000  0.004  0.004
   16  0.000  0.000  0.004  0.004
   17  0.000  0.000  0.004  0.004
   18  0.000  0.000  0.004  0.005
   19  0.002  0.003  0.010  0.016
   20  0.002  0.004  0.042  0.048
   21  0.000  0.001  0.011  0.013
   22  0.001  0.001  0.009  0.011
   23  0.001  0.001  0.015  0.016
   24  0.003  0.000  0.004  0.007
   25  0.008  0.000  0.006  0.015
   26  0.002  0.003  0.011  0.016
   27  0.001  0.001  0.009  0.011
   28  0.000  0.002  0.019  0.021
   29  0.010  0.000  0.020  0.030
   30  0.000  0.002  0.007  0.009
   31  0.009  0.000  0.019  0.028
   32  0.010  0.002  0.014  0.026
   33  0.000  0.002  0.008  0.010
   34  0.011  0.002  0.015  0.028
   35  0.000  0.001  0.011  0.012
   36  0.000  0.007  0.340  0.346