PROCAR new format
# of k-points:   10         # of bands:  252         # of ions:   38

 k-point     1 :    0.00000000 0.00000000 0.00000000     weight = 0.01562500

band     1 # energy  -22.53971997 # occ.  2.00000000
 
ion      s      p      d    tot
    1  0.000  0.000  0.000  0.000
    2  0.000  0.000  0.000  0.000
    3  0.000  0.000  0.000  0.000
    4  0.000  0.000  0.000  0.000
    5  0.000  0.000  0.000  0.000
    6  0.000  0.000  0.000  0.000
    7  0.000  0.000  0.000  0.000
    8  0.000  0.000  0.000  0.000
    9  0.000  0.000  0.000  0.000
   10  0.000  0.000  0.000  0.000
   11  0.000  0.000  0.000  0.000
   12  0.000  0.000  0.000  0.000
   13  0.000  0.000  0.000  0.000
   14  0.000  0.000  0.000  0.000
   15  0.000  0.000  0.000  0.000
   16  0.000  0.000  0.000  0.000
   17  0.000  0.000  0.000  0.000
   18  0.000  0.000  0.000  0.000
   19  0.000  0.000  0.000  0.000
   20  0.000  0.000  0.000  0.000
   21  0.000  0.000  0.000  0.000
   22  0.000  0.000  0.000  0.000
   23  0.000  0.000  0.000  0.000
   24  0.000  0.000  0.000  0.000
   25  0.000  0.000  0.000  0.000
   26  0.000  0.000  0.000  0.000
   27  0.000  0.000  0.000  0.000
   28  0.000  0.000  0.000  0.000
   29  0.000  0.000  0.000  0.000
   30  0.000  0.000  0.000  0.000
   31  0.000  0.000  0.000  0.000
   32  0.000  0.000  0.000  0.000
   33  0.000  0.000  0.000  0.000
   34  0.000  0.000  0.000  0.000
   35  0.000  0.000  0.000  0.000
   36  0.000  0.000  0.000  0.001
   37  0.160  0.116  0.000  0.276
   38  0.636  0.096  0.000  0.732
tot    0.796  0.213  0.000  1.009
 
band     2 # energy   -8.48956281 # occ.  2.00000000
 
ion      s      p      d    tot
    1  0.000  0.000  0.000  0.000
    2  0.000  0.000  0.000  0.000
    3  0.000  0.000  0.000  0.000
    4  0.000  0.000  0.000  0.000
    5  0.000  0.000  0.000  0.000
    6  0.000  0.000  0.000  0.000
    7  0.000  0.000  0.000  0.000
    8  0.000  0.000  0.000  0.000
    9  0.000  0.000  0.000  0.000
   10  0.001  0.000  0.000  0.001
   11  0.001  0.000  0.000  0.001
   12  0.001  0.000  0.000  0.001
   13  0.001  0.000  0.000  0.001
   14  0.001  0.000  0.000  0.001
   15  0.001  0.000  0.000  0.001
   16  0.001  0.000  0.000  0.001
   17  0.001  0.000  0.000  0.001
   18  0.001  0.000  0.000  0.001
   19  0.002  0.000  0.000  0.002
   20  0.004  0.000  0.001  0.005
   21  0.004  0.000  0.001  0.005
   22  0.002  0.000  0.000  0.002
   23  0.004  0.000  0.001  0.005
   24  0.002  0.000  0.000  0.002
   25  0.002  0.000  0.000  0.002
   26  0.002  0.000  0.000  0.002
   27  0.002  0.000  0.000  0.002
   28  0.001  0.000  0.000  0.001
   29  0.002  0.000  0.000  0.002
   30  0.002  0.000  0.000  0.002
   31  0.002  0.000  0.000  0.002
   32  0.002  0.000  0.000  0.002
   33  0.002  0.000  0.000  0.002
   34  0.002  0.000  0.000  0.002
   35  0.001  0.000  0.000  0.001
   36  0.053  0.031  0.107  0.190
   37  0.271  0.018  0.000  0.289
   38  0.116  0.144  0.000  0.259
tot    0.483  0.195  0.113  0.790
 
band     3 # energy   -8.00402843 # occ.  2.00000000
 
ion      s      p      d    tot
    1  0.007  0.001  0.000  0.007
    2  0.007  0.001  0.000  0.007
    3  0.007  0.001  0.000  0.007
    4  0.007  0.001  0.000  0.007
    5  0.007  0.001  0.000  0.007
    6  0.007  0.001  0.000  0.007
    7  0.007  0.001  0.000  0.007
    8  0.007  0.001  0.000  0.007
    9  0.007  0.001  0.000  0.007
   10  0.027  0.000  0.000  0.027
   11  0.027  0.000  0.000  0.027
   12  0.027  0.000  0.000  0.027
   13  0.027  0.000  0.000  0.027
   14  0.027  0.000  0.000  0.027
   15  0.027  0.000  0.000  0.027
   16  0.027  0.000  0.000  0.027
   17  0.027  0.000  0.000  0.027
   18  0.027  0.000  0.000  0.027
   19  0.022  0.000  0.000  0.023
   20  0.021  0.000  0.000  0.021
   21  0.021  0.000  0.000  0.021
   22  0.023  0.000  0.000  0.023
   23  0.021  0.000  0.000  0.021
   24  0.023  0.000  0.000  0.023
   25  0.022  0.000  0.000  0.023
   26  0.022  0.000  0.000  0.023
   27  0.023  0.000  0.000  0.023
   28  0.004  0.000  0.000  0.004
   29  0.003  0.000  0.000  0.004
   30  0.003  0.000  0.000  0.004
   31  0.003  0.000  0.000  0.004
   32  0.003  0.000  0.000  0.004
   33  0.003  0.000  0.000  0.004
   34  0.003  0.000  0.000  0.004
   35  0.004  0.000  0.000  0.004
   36  0.000  0.005  0.005  0.010
   37  0.019  0.000  0.000  0.019
   38  0.010  0.018  0.000  0.028
tot    0.554  0.034  0.009  0.597
 
band     4 # energy   -6.84011244 # occ.  2.00000000
 
ion      s      p      d    tot
    1  0.017  0.000  0.001  0.018
    2  0.016  0.000  0.001  0.018
    3  0.016  0.000  0.001  0.018
    4  0.016  0.000  0.001  0.018
    5  0.016  0.000  0.001  0.017
    6  0.016  0.000  0.001  0.018
    7  0.016  0.000  0.001  0.018
    8  0.016  0.000  0.001  0.018
    9  0.016  0.000  0.001  0.018
   10  0.010  0.002  0.002  0.014
   11  0.009  0.001  0.002  0.013
   12  0.010  0.002  0.002  0.014
   13  0.009  0.001  0.002  0.013
   14  0.009  0.001  0.002  0.013
   15  0.009  0.002  0.003  0.013
   16  0.010  0.002  0.002  0.014
   17  0.009  0.002  0.003  0.013
   18  0.009  0.002  0.003  0.013
   19  0.015  0.001  0.004  0.020
   20  0.014  0.001  0.004  0.019
   21  0.014  0.001  0.004  0.019
   22  0.016  0.001  0.003  0.020
   23  0.014  0.001  0.004  0.019
   24  0.015  0.001  0.003  0.020
   25  0.015  0.001  0.004  0.020
   26  0.015  0.001  0.004  0.020
   27  0.016  0.001  0.003  0.020
   28  0.014  0.001  0.000  0.015
   29  0.013  0.001  0.000  0.014
   30  0.013  0.001  0.000  0.014
   31  0.013  0.001  0.000  0.014
   32  0.013  0.001  0.000  0.014
   33  0.013  0.001  0.000  0.014
   34  0.013  0.001  0.000  0.014
   35  0.014  0.001  0.000  0.015
   36  0.008  0.001  0.000  0.008
   37  0.002  0.003  0.000  0.006
   38  0.005  0.019  0.000  0.024
tot    0.484  0.054  0.069  0.607
 
band     5 # energy   -6.06264320 # occ.  2.00000000
 
ion      s      p      d    tot
    1  0.006  0.000  0.000  0.006
    2  0.001  0.000  0.001  0.002
    3  0.001  0.000  0.001  0.002
    4  0.001  0.000  0.001  0.002
    5  0.001  0.000  0.001  0.002
    6  0.001  0.000  0.001  0.002
    7  0.001  0.000  0.001  0.002
    8  0.001  0.000  0.001  0.002
    9  0.000  0.000  0.001  0.002
   10  0.002  0.000  0.007  0.009
   11  0.000  0.000  0.003  0.004
   12  0.002  0.000  0.007  0.009
   13  0.000  0.000  0.003  0.004
   14  0.000  0.000  0.003  0.004
   15  0.007  0.001  0.001  0.009
   16  0.002  0.000  0.007  0.009
   17  0.007  0.001  0.001  0.009
   18  0.007  0.001  0.001  0.009
   19  0.001  0.000  0.009  0.010
   20  0.007  0.001  0.019  0.027
   21  0.007  0.001  0.019  0.027
   22  0.012  0.001  0.000  0.013
   23  0.007  0.001  0.019  0.027
   24  0.012  0.001  0.000  0.013
   25  0.001  0.000  0.009  0.010
   26  0.001  0.000  0.009  0.010
   27  0.012  0.001  0.000  0.013
   28  0.001  0.000  0.000  0.001
   29  0.000  0.000  0.002  0.002
   30  0.000  0.000  0.002  0.002
   31  0.000  0.000  0.002  0.002
   32  0.000  0.000  0.002  0.002
   33  0.000  0.000  0.002  0.002
   34  0.000  0.000  0.002  0.002
   35  0.004  0.001  0.000  0.005
   36  0.039  0.007  0.118  0.164
   37  0.002  0.140  0.000  0.142
   38  0.031  0.241  0.000  0.272
tot    0.178  0.403  0.255  0.836
 
band     6 # energy   -5.91171987 # occ.  2.00000000
 
ion      s      p      d    tot
    1  0.016  0.000  0.023  0.040
    2  0.020  0.000  0.020  0.040
    3  0.020  0.000  0.020  0.040
    4  0.020  0.000  0.020  0.040
    5  0.015  0.000  0.019  0.035
    6  0.020  0.000  0.020  0.040
    7  0.020  0.000  0.020  0.040
    8  0.020  0.000  0.020  0.040
    9  0.031  0.000  0.016  0.047
   10  0.011  0.001  0.022  0.034
   11  0.013  0.001  0.020  0.034
   12  0.010  0.001  0.022  0.034
   13  0.013  0.001  0.020  0.034
   14  0.013  0.001  0.020  0.034
   15  0.002  0.001  0.025  0.027
   16  0.010  0.001  0.022  0.034
   17  0.002  0.001  0.025  0.027
   18  0.002  0.001  0.025  0.027
   19  0.000  0.001  0.002  0.003
   20  0.002  0.001  0.003  0.006
   21  0.002  0.001  0.003  0.006
   22  0.001  0.001  0.001  0.003
   23  0.002  0.001  0.003  0.006
   24  0.001  0.001  0.001  0.003
   25  0.000  0.001  0.002  0.003
   26  0.000  0.001  0.002  0.003
   27  0.001  0.001  0.001  0.003
   28  0.004  0.000  0.000  0.004
   29  0.002  0.000  0.001  0.003
   30  0.002  0.000  0.001  0.003
   31  0.002  0.000  0.001  0.003
   32  0.002  0.000  0.001  0.003
   33  0.002  0.000  0.001  0.003
   34  0.002  0.000  0.001  0.003
   35  0.004  0.000  0.001  0.005
   36  0.000  0.000  0.000  0.001
   37  0.000  0.000  0.000  0.000
   38  0.000  0.001  0.000  0.001
tot    0.293  0.015  0.405  0.713
 
band     7 # energy   -5.88245825 # occ.  2.00000000
 
ion      s      p      d    tot
    1  0.000  0.001  0.010  0.011
    2  0.005  0.001  0.003  0.009
    3  0.000  0.000  0.003  0.003
    4  0.005  0.001  0.003  0.009
    5  0.000  0.001  0.005  0.006
    6  0.006  0.001  0.004  0.011
    7  0.000  0.000  0.003  0.004
    8  0.006  0.001  0.004  0.011
    9  0.000  0.000  0.002  0.002
   10  0.051  0.002  0.004  0.057
   11  0.010  0.003  0.014  0.028
   12  0.013  0.001  0.033  0.047
   13  0.011  0.003  0.014  0.028
   14  0.042  0.000  0.014  0.056
   15  0.000  0.002  0.011  0.014
   16  0.013  0.001  0.034  0.047
   17  0.000  0.002  0.011  0.014
   18  0.000  0.001  0.011  0.012
   19  0.005  0.003  0.008  0.017
   20  0.056  0.002  0.006  0.064
   21  0.014  0.001  0.029  0.045
   22  0.002  0.001  0.016  0.019
   23  0.014  0.001  0.030  0.044
   24  0.007  0.001  0.007  0.015
   25  0.021  0.000  0.014  0.035
   26  0.005  0.003  0.009  0.017
   27  0.002  0.001  0.016  0.019
   28  0.000  0.001  0.002  0.002
   29  0.004  0.001  0.003  0.008
   30  0.003  0.001  0.003  0.006
   31  0.004  0.001  0.003  0.008
   32  0.000  0.000  0.002  0.003
   33  0.003  0.001  0.003  0.006
   34  0.000  0.000  0.002  0.003
   35  0.000  0.000  0.002  0.002
   36  0.000  0.001  0.008  0.009
   37  0.000  0.001  0.000  0.001
   38  0.000  0.001  0.000  0.001
tot    0.303  0.045  0.347  0.695
 
band     8 # energy   -5.88244390 # occ.  2.00000000
 
ion      s      p      d    tot
    1  0.000  0.001  0.010  0.011
    2  0.002  0.001  0.004  0.007
    3  0.008  0.001  0.004  0.012
    4  0.002  0.001  0.004  0.006
    5  0.000  0.001  0.005  0.006
    6  0.001  0.001  0.003  0.005
    7  0.007  0.001  0.004  0.012
    8  0.002  0.001  0.003  0.005
    9  0.000  0.000  0.002  0.002
   10  0.000  0.000  0.043  0.043
   11  0.032  0.001  0.014  0.047
   12  0.038  0.002  0.014  0.054
   13  0.031  0.001  0.014  0.047
   14  0.000  0.004  0.014  0.019
   15  0.000  0.001  0.011  0.013
   16  0.039  0.002  0.013  0.054
   17  0.000  0.001  0.011  0.013
   18  0.000  0.003  0.011  0.014
   19  0.016  0.001  0.012  0.029
   20  0.000  0.001  0.037  0.038
   21  0.042  0.002  0.014  0.057
   22  0.005  0.001  0.010  0.017
   23  0.042  0.002  0.013  0.057
   24  0.000  0.001  0.019  0.020
   25  0.000  0.004  0.007  0.011
   26  0.015  0.001  0.012  0.029
   27  0.005  0.001  0.010  0.017
   28  0.000  0.001  0.002  0.002
   29  0.000  0.000  0.002  0.003
   30  0.002  0.001  0.002  0.005
   31  0.000  0.000  0.002  0.003
   32  0.005  0.001  0.003  0.009
   33  0.002  0.001  0.002  0.005
   34  0.005  0.001  0.003  0.009
   35  0.000  0.000  0.002  0.002
   36  0.000  0.001  0.008  0.009
   37  0.000  0.001  0.000  0.001
   38  0.000  0.001  0.000  0.001
tot    0.303  0.045  0.347  0.695
 
band     9 # energy   -5.86375348 # occ.  2.00000000
 
ion      s      p      d    tot
    1  0.008  0.001  0.001  0.010
    2  0.000  0.001  0.006  0.007
    3  0.000  0.001  0.006  0.007
    4  0.000  0.001  0.006  0.007
    5  0.016  0.002  0.001  0.019
    6  0.000  0.001  0.005  0.006
    7  0.000  0.001  0.006  0.007
    8  0.000  0.001  0.005  0.006
    9  0.000  0.000  0.002  0.002
   10  0.027  0.003  0.003  0.033
   11  0.024  0.001  0.022  0.047
   12  0.022  0.003  0.002  0.028
   13  0.024  0.001  0.022  0.047
   14  0.020  0.001  0.020  0.040
   15  0.001  0.001  0.025  0.027
   16  0.022  0.003  0.002  0.028
   17  0.001  0.001  0.025  0.027
   18  0.000  0.001  0.027  0.028
   19  0.027  0.002  0.007  0.037
   20  0.007  0.003  0.014  0.024
   21  0.006  0.003  0.011  0.020
   22  0.010  0.000  0.024  0.034
   23  0.006  0.003  0.011  0.020
   24  0.005  0.000  0.027  0.032
   25  0.021  0.002  0.007  0.030
   26  0.027  0.002  0.007  0.037
   27  0.010  0.000  0.024  0.034
   28  0.012  0.001  0.001  0.014
   29  0.000  0.000  0.004  0.005
   30  0.000  0.000  0.004  0.004
   31  0.000  0.000  0.004  0.005
   32  0.000  0.000  0.004  0.005
   33  0.000  0.000  0.004  0.004
   34  0.000  0.000  0.004  0.005
   35  0.004  0.001  0.002  0.007
   36  0.001  0.000  0.000  0.001
   37  0.000  0.001  0.000  0.001
   38  0.000  0.001  0.000  0.001
tot    0.303  0.043  0.348  0.693
 
band    10 # energy   -5.86325701 # occ.  2.00000000
 
ion      s      p      d    tot
    1  0.000  0.001  0.002  0.002
    2  0.005  0.001  0.003  0.010
    3  0.000  0.000  0.003  0.004
    4  0.006  0.001  0.003  0.010
    5  0.000  0.000  0.006  0.006
    6  0.007  0.001  0.004  0.012
    7  0.000  0.000  0.003  0.004
    8  0.006  0.001  0.004  0.012
    9  0.000  0.001  0.010  0.011
   10  0.000  0.005  0.002  0.006
   11  0.015  0.001  0.011  0.028
   12  0.009  0.001  0.013  0.023
   13  0.014  0.001  0.012  0.028
   14  0.000  0.001  0.033  0.033
   15  0.048  0.001  0.014  0.064
   16  0.009  0.001  0.013  0.024
   17  0.046  0.001  0.015  0.062
   18  0.000  0.002  0.035  0.037
   19  0.024  0.002  0.011  0.036
   20  0.000  0.003  0.005  0.008
   21  0.001  0.001  0.011  0.014
   22  0.034  0.002  0.014  0.049
   23  0.001  0.001  0.012  0.014
   24  0.000  0.003  0.023  0.026
   25  0.000  0.000  0.034  0.034
   26  0.023  0.001  0.012  0.036
   27  0.036  0.001  0.013  0.050
   28  0.000  0.000  0.006  0.006
   29  0.005  0.001  0.003  0.008
   30  0.004  0.001  0.003  0.007
   31  0.005  0.001  0.002  0.008
   32  0.000  0.000  0.002  0.002
   33  0.004  0.001  0.003  0.007
   34  0.000  0.000  0.002  0.002
   35  0.000  0.001  0.006  0.006
   36  0.000  0.000  0.000  0.001
   37  0.000  0.001  0.000  0.001
   38  0.000  0.002  0.000  0.002
tot    0.300  0.044  0.349  0.693
 
band    11 # energy   -5.86324512 # occ.  2.00000000
 
ion      s      p      d    tot
    1  0.000  0.001  0.002  0.002
    2  0.003  0.001  0.004  0.007
    3  0.008  0.001  0.004  0.013
    4  0.002  0.001  0.003  0.006
    5  0.000  0.000  0.006  0.006
    6  0.001  0.001  0.003  0.006
    7  0.008  0.001  0.004  0.013
    8  0.002  0.001  0.003  0.006
    9  0.000  0.001  0.010  0.011
   10  0.009  0.000  0.016  0.025
   11  0.003  0.001  0.026  0.030
   12  0.005  0.003  0.006  0.014
   13  0.004  0.001  0.025  0.029
   14  0.023  0.002  0.006  0.031
   15  0.014  0.002  0.030  0.045
   16  0.004  0.004  0.006  0.013
   17  0.016  0.002  0.029  0.047
   18  0.063  0.001  0.007  0.071
   19  0.005  0.001  0.027  0.033
   20  0.001  0.000  0.012  0.013
   21  0.001  0.002  0.008  0.011
   22  0.011  0.002  0.021  0.034
   23  0.001  0.003  0.008  0.011
   24  0.050  0.001  0.008  0.059
   25  0.035  0.002  0.004  0.041
   26  0.006  0.001  0.026  0.033
   27  0.009  0.003  0.021  0.033
   28  0.000  0.000  0.006  0.006
   29  0.001  0.000  0.002  0.003
   30  0.002  0.000  0.002  0.005
   31  0.001  0.000  0.002  0.003
   32  0.005  0.001  0.003  0.009
   33  0.002  0.001  0.002  0.005
   34  0.006  0.001  0.003  0.009
   35  0.000  0.001  0.006  0.006
   36  0.000  0.000  0.000  0.001
   37  0.000  0.001  0.000  0.001
   38  0.000  0.002  0.000  0.002
tot    0.300  0.044  0.349  0.693
 
band    12 # energy   -5.81371943 # occ.  2.00000000
 
ion      s      p      d    tot
    1  0.004  0.000  0.000  0.005
    2  0.000  0.000  0.003  0.004
    3  0.000  0.000  0.003  0.004
    4  0.000  0.000  0.003  0.004
    5  0.001  0.000  0.001  0.002
    6  0.000  0.000  0.003  0.004
    7  0.000  0.000  0.003  0.004
    8  0.000  0.000  0.003  0.004
    9  0.004  0.001  0.002  0.008
   10  0.001  0.000  0.020  0.022
   11  0.000  0.001  0.012  0.013
   12  0.001  0.000  0.020  0.022
   13  0.000  0.001  0.012  0.013
   14  0.000  0.001  0.012  0.013
   15  0.019  0.001  0.005  0.025
   16  0.001  0.000  0.020  0.022
   17  0.019  0.001  0.005  0.025
   18  0.019  0.001  0.005  0.025
   19  0.006  0.001  0.022  0.029
   20  0.018  0.001  0.011  0.030
   21  0.018  0.001  0.011  0.030
   22  0.000  0.001  0.023  0.024
   23  0.018  0.001  0.011  0.030
   24  0.000  0.001  0.023  0.024
   25  0.006  0.001  0.022  0.029
   26  0.006  0.001  0.022  0.029
   27  0.000  0.001  0.023  0.024
   28  0.009  0.000  0.007  0.015
   29  0.009  0.000  0.010  0.019
   30  0.009  0.000  0.010  0.019
   31  0.009  0.000  0.010  0.019
   32  0.009  0.000  0.010  0.019
   33  0.009  0.000  0.010  0.019
   34  0.009  0.000  0.010  0.019
   35  0.017  0.000  0.007  0.024
   36  0.011  0.010  0.007  0.028
   37  0.001  0.037  0.000  0.038
   38  0.006  0.060  0.000  0.066
tot    0.241  0.125  0.381  0.746
 
band    13 # energy   -5.71899316 # occ.  2.00000000
 
ion      s      p      d    tot
    1  0.004  0.000  0.000  0.004
    2  0.000  0.000  0.004  0.005
    3  0.000  0.000  0.004  0.005
    4  0.000  0.000  0.004  0.005
    5  0.006  0.000  0.000  0.006
    6  0.000  0.000  0.004  0.005
    7  0.000  0.000  0.004  0.005
    8  0.000  0.000  0.004  0.005
    9  0.005  0.001  0.002  0.009
   10  0.002  0.000  0.017  0.019
   11  0.004  0.001  0.003  0.009
   12  0.002  0.000  0.017  0.019
   13  0.004  0.001  0.003  0.009
   14  0.004  0.001  0.003  0.009
   15  0.017  0.001  0.007  0.025
   16  0.002  0.000  0.017  0.019
   17  0.017  0.001  0.007  0.025
   18  0.017  0.001  0.007  0.025
   19  0.001  0.001  0.011  0.013
   20  0.000  0.000  0.022  0.022
   21  0.000  0.000  0.022  0.022
   22  0.011  0.002  0.012  0.025
   23  0.000  0.000  0.022  0.022
   24  0.011  0.002  0.012  0.025
   25  0.001  0.001  0.011  0.013
   26  0.001  0.001  0.011  0.013
   27  0.011  0.002  0.012  0.025
   28  0.021  0.000  0.015  0.035
   29  0.016  0.000  0.012  0.028
   30  0.016  0.000  0.012  0.028
   31  0.016  0.000  0.012  0.028
   32  0.016  0.000  0.012  0.028
   33  0.016  0.000  0.012  0.028
   34  0.016  0.000  0.012  0.028
   35  0.015  0.000  0.014  0.029
   36  0.000  0.003  0.058  0.062
   37  0.003  0.024  0.000  0.027
   38  0.003  0.026  0.000  0.029
tot    0.257  0.078  0.403  0.738
 
band    14 # energy   -5.51633585 # occ.  2.00000000
 
ion      s      p      d    tot
    1  0.000  0.000  0.000  0.000
    2  0.000  0.000  0.000  0.000
    3  0.000  0.000  0.000  0.000
    4  0.000  0.000  0.000  0.000
    5  0.000  0.000  0.000  0.000
    6  0.000  0.000  0.000  0.000
    7  0.000  0.000  0.000  0.000
    8  0.000  0.000  0.000  0.000
    9  0.000  0.000  0.000  0.000
   10  0.001  0.000  0.000  0.001
   11  0.000  0.000  0.000  0.000
   12  0.000  0.000  0.001  0.001
   13  0.000  0.000  0.000  0.000
   14  0.000  0.000  0.000  0.000
   15  0.000  0.000  0.001  0.001
   16  0.000  0.000  0.001  0.001
   17  0.000  0.000  0.001  0.001
   18  0.001  0.000  0.000  0.001
   19  0.000  0.000  0.000  0.001
   20  0.000  0.000  0.001  0.001
   21  0.000  0.000  0.001  0.001
   22  0.000  0.000  0.000  0.000
   23  0.000  0.000  0.001  0.001
   24  0.000  0.000  0.000  0.000
   25  0.001  0.000  0.000  0.001
   26  0.000  0.000  0.000  0.001
   27  0.000  0.000  0.000  0.000
   28  0.000  0.000  0.001  0.001
   29  0.002  0.000  0.003  0.006
   30  0.000  0.000  0.001  0.001
   31  0.002  0.000  0.003  0.006
   32  0.001  0.001  0.002  0.004
   33  0.000  0.000  0.001  0.001
   34  0.001  0.001  0.002  0.004
   35  0.000  0.000  0.001  0.001
   36  0.000  0.004  0.047  0.051
   37  0.000  0.179  0.000  0.179
   38  0.000  0.409  0.000  0.409
tot    0.012  0.594  0.073  0.679
 
band    15 # energy   -5.51623238 # occ.  2.00000000
 
ion      s      p      d    tot
    1  0.000  0.000  0.000  0.000
    2  0.000  0.000  0.000  0.000
    3  0.000  0.000  0.000  0.000
    4  0.000  0.000  0.000  0.000
    5  0.000  0.000  0.000  0.000
    6  0.000  0.000  0.000  0.000
    7  0.000  0.000  0.000  0.000
    8  0.000  0.000  0.000  0.000
    9  0.000  0.000  0.000  0.000
   10  0.000  0.000  0.001  0.001
   11  0.000  0.000  0.000  0.000
   12  0.001  0.000  0.001  0.001
   13  0.000  0.000  0.000  0.000
   14  0.000  0.000  0.000  0.000
   15  0.000  0.000  0.000  0.001
   16  0.001  0.000  0.001  0.001
   17  0.000  0.000  0.000  0.001
   18  0.000  0.000  0.001  0.001
   19  0.001  0.000  0.000  0.001
   20  0.000  0.000  0.001  0.001
   21  0.000  0.000  0.001  0.001
   22  0.000  0.000  0.000  0.000
   23  0.000  0.000  0.001  0.001
   24  0.000  0.000  0.000  0.000
   25  0.000  0.000  0.001  0.001
   26  0.001  0.000  0.000  0.001
   27  0.000  0.000  0.000  0.000
   28  0.000  0.000  0.001  0.001
   29  0.000  0.000  0.001  0.002
   30  0.002  0.001  0.003  0.006
   31  0.000  0.000  0.001  0.002
   32  0.001  0.000  0.002  0.003
   33  0.002  0.001  0.003  0.006
   34  0.001  0.000  0.002  0.003
   35  0.000  0.000  0.001  0.001
   36  0.000  0.004  0.047  0.051
   37  0.000  0.179  0.000  0.179
   38  0.000  0.409  0.000  0.409
tot    0.012  0.594  0.073  0.679
 
band    16 # energy   -5.39230224 # occ.  2.00000000
 
ion      s      p      d    tot
    1  0.016  0.002  0.002  0.020
    2  0.000  0.001  0.008  0.009
    3  0.000  0.001  0.008  0.009
    4  0.000  0.001  0.008  0.009
    5  0.000  0.000  0.002  0.002
    6  0.000  0.001  0.008  0.009
    7  0.000  0.001  0.008  0.009
    8  0.000  0.001  0.008  0.009
    9  0.015  0.001  0.000  0.016
   10  0.009  0.002  0.011  0.022
   11  0.004  0.000  0.039  0.043
   12  0.009  0.002  0.011  0.022
   13  0.004  0.000  0.039  0.043
   14  0.003  0.000  0.039  0.043
   15  0.002  0.001  0.029  0.032
   16  0.009  0.002  0.011  0.022
   17  0.002  0.001  0.029  0.032
   18  0.002  0.001  0.029  0.032
   19  0.006  0.001  0.012  0.019
   20  0.001  0.000  0.045  0.046
   21  0.001  0.000  0.045  0.046
   22  0.012  0.001  0.021  0.035
   23  0.001  0.000  0.045  0.046
   24  0.012  0.001  0.021  0.034
   25  0.006  0.001  0.012  0.019
   26  0.006  0.001  0.012  0.019
   27  0.012  0.001  0.021  0.035
   28  0.013  0.001  0.001  0.015
   29  0.000  0.001  0.006  0.007
   30  0.000  0.001  0.006  0.007
   31  0.000  0.001  0.006  0.007
   32  0.000  0.001  0.006  0.007
   33  0.000  0.001  0.006  0.007
   34  0.000  0.001  0.006  0.007
   35  0.009  0.001  0.002  0.013
   36  0.001  0.000  0.000  0.001
   37  0.000  0.000  0.000  0.000
   38  0.000  0.000  0.000  0.000
tot    0.156  0.031  0.562  0.749
 
band    17 # energy   -5.38889266 # occ.  2.00000000
 
ion      s      p      d    tot
    1  0.000  0.001  0.004  0.005
    2  0.009  0.001  0.004  0.015
    3  0.002  0.000  0.004  0.007
    4  0.009  0.001  0.004  0.015
    5  0.000  0.001  0.012  0.013
    6  0.003  0.001  0.005  0.009
    7  0.002  0.000  0.004  0.007
    8  0.003  0.001  0.005  0.009
    9  0.000  0.000  0.008  0.008
   10  0.011  0.002  0.007  0.021
   11  0.004  0.000  0.038  0.042
   12  0.003  0.001  0.045  0.048
   13  0.004  0.000  0.038  0.043
   14  0.017  0.001  0.014  0.032
   15  0.000  0.001  0.014  0.016
   16  0.003  0.001  0.044  0.048
   17  0.000  0.001  0.014  0.015
   18  0.001  0.000  0.023  0.024
   19  0.003  0.001  0.018  0.023
   20  0.023  0.002  0.005  0.030
   21  0.006  0.000  0.054  0.060
   22  0.000  0.001  0.026  0.028
   23  0.006  0.000  0.053  0.059
   24  0.002  0.001  0.015  0.018
   25  0.013  0.000  0.022  0.035
   26  0.003  0.001  0.018  0.022
   27  0.000  0.001  0.026  0.028
   28  0.000  0.001  0.009  0.009
   29  0.008  0.001  0.004  0.013
   30  0.000  0.001  0.004  0.005
   31  0.008  0.001  0.004  0.013
   32  0.005  0.001  0.003  0.009
   33  0.000  0.001  0.004  0.005
   34  0.005  0.001  0.003  0.009
   35  0.000  0.000  0.003  0.003
   36  0.000  0.002  0.004  0.006
   37  0.000  0.000  0.000  0.000
   38  0.000  0.001  0.000  0.001
tot    0.154  0.031  0.564  0.750
 
band    18 # energy   -5.38888361 # occ.  2.00000000
 
ion      s      p      d    tot
    1  0.000  0.001  0.004  0.005
    2  0.000  0.000  0.005  0.005
    3  0.007  0.001  0.005  0.013
    4  0.000  0.000  0.005  0.005
    5  0.000  0.001  0.012  0.013
    6  0.007  0.001  0.004  0.011
    7  0.007  0.001  0.005  0.013
    8  0.007  0.001  0.004  0.011
    9  0.000  0.000  0.008  0.008
   10  0.000  0.000  0.057  0.058
   11  0.013  0.001  0.022  0.036
   12  0.008  0.002  0.019  0.030
   13  0.013  0.001  0.022  0.035
   14  0.000  0.000  0.046  0.046
   15  0.001  0.001  0.020  0.021
   16  0.008  0.002  0.020  0.030
   17  0.001  0.001  0.020  0.021
   18  0.000  0.001  0.011  0.012
   19  0.010  0.000  0.021  0.031
   20  0.000  0.000  0.069  0.069
   21  0.018  0.001  0.021  0.040
   22  0.001  0.001  0.019  0.021
   23  0.017  0.001  0.022  0.040
   24  0.000  0.001  0.030  0.031
   25  0.000  0.001  0.017  0.018
   26  0.010  0.000  0.021  0.031
   27  0.001  0.001  0.019  0.021
   28  0.000  0.001  0.009  0.009
   29  0.001  0.000  0.004  0.005
   30  0.008  0.001  0.003  0.013
   31  0.001  0.000  0.004  0.005
   32  0.004  0.001  0.004  0.009
   33  0.008  0.001  0.003  0.013
   34  0.004  0.001  0.004  0.009
   35  0.000  0.000  0.003  0.003
   36  0.000  0.002  0.004  0.006
   37  0.000  0.000  0.000  0.000
   38  0.000  0.001  0.000  0.001
tot    0.154  0.032  0.564  0.750
 
band    19 # energy   -5.37240201 # occ.  2.00000000
 
ion      s      p      d    tot
    1  0.000  0.000  0.014  0.014
    2  0.010  0.001  0.005  0.016
    3  0.003  0.000  0.005  0.008
    4  0.010  0.001  0.005  0.016
    5  0.000  0.000  0.004  0.005
    6  0.002  0.001  0.006  0.009
    7  0.003  0.000  0.005  0.008
    8  0.002  0.001  0.006  0.009
    9  0.000  0.001  0.009  0.010
   10  0.000  0.001  0.022  0.023
   11  0.002  0.001  0.019  0.022
   12  0.005  0.000  0.023  0.028
   13  0.002  0.001  0.019  0.022
   14  0.000  0.001  0.027  0.028
   15  0.013  0.002  0.021  0.036
   16  0.005  0.000  0.023  0.028
   17  0.013  0.002  0.021  0.036
   18  0.000  0.000  0.065  0.065
   19  0.010  0.001  0.019  0.031
   20  0.000  0.002  0.012  0.014
   21  0.001  0.000  0.021  0.022
   22  0.019  0.001  0.021  0.040
   23  0.001  0.000  0.020  0.022
   24  0.000  0.000  0.042  0.043
   25  0.000  0.001  0.060  0.061
   26  0.010  0.001  0.019  0.030
   27  0.018  0.001  0.021  0.040
   28  0.000  0.001  0.004  0.004
   29  0.007  0.001  0.004  0.012
   30  0.001  0.000  0.004  0.005
   31  0.007  0.001  0.004  0.012
   32  0.003  0.001  0.002  0.006
   33  0.001  0.000  0.004  0.005
   34  0.003  0.001  0.002  0.006
   35  0.000  0.001  0.008  0.009
   36  0.000  0.000  0.002  0.002
   37  0.000  0.000  0.000  0.000
   38  0.000  0.000  0.000  0.000
tot    0.153  0.030  0.567  0.750
 
band    20 # energy   -5.37237849 # occ.  2.00000000
 
ion      s      p      d    tot
    1  0.000  0.000  0.014  0.014
    2  0.000  0.000  0.005  0.006
    3  0.008  0.001  0.005  0.014
    4  0.000  0.000  0.005  0.006
    5  0.000  0.000  0.004  0.005
    6  0.008  0.001  0.004  0.013
    7  0.008  0.001  0.005  0.014
    8  0.008  0.001  0.004  0.013
    9  0.000  0.001  0.009  0.010
   10  0.007  0.000  0.023  0.030
   11  0.001  0.001  0.025  0.026
   12  0.002  0.001  0.022  0.025
   13  0.001  0.001  0.025  0.026
   14  0.003  0.001  0.016  0.020
   15  0.004  0.001  0.050  0.055
   16  0.002  0.001  0.022  0.025
   17  0.004  0.001  0.050  0.055
   18  0.018  0.002  0.007  0.027
   19  0.003  0.001  0.046  0.051
   20  0.002  0.000  0.023  0.025
   21  0.000  0.001  0.015  0.017
   22  0.006  0.000  0.035  0.042
   23  0.000  0.001  0.015  0.017
   24  0.025  0.001  0.014  0.040
   25  0.014  0.001  0.006  0.021
   26  0.003  0.001  0.047  0.051
   27  0.006  0.000  0.035  0.042
   28  0.000  0.001  0.004  0.004
   29  0.000  0.000  0.003  0.004
   30  0.006  0.001  0.003  0.010
   31  0.000  0.000  0.003  0.004
   32  0.004  0.001  0.004  0.009
   33  0.006  0.001  0.003  0.010
   34  0.004  0.001  0.004  0.009
   35  0.000  0.001  0.008  0.009
   36  0.000  0.000  0.002  0.002
   37  0.000  0.000  0.000  0.000
   38  0.000  0.000  0.000  0.000
tot    0.153  0.030  0.567  0.750
 
band    21 # energy   -5.31192601 # occ.  2.00000000
 
ion      s      p      d    tot
    1  0.011  0.000  0.001  0.012
    2  0.000  0.001  0.009  0.010
    3  0.000  0.001  0.009  0.010
    4  0.000  0.001  0.009  0.010
    5  0.017  0.002  0.001  0.020
    6  0.000  0.001  0.009  0.010
    7  0.000  0.001  0.009  0.010
    8  0.000  0.001  0.009  0.010
    9  0.001  0.000  0.002  0.003
   10  0.000  0.000  0.041  0.042
   11  0.004  0.001  0.018  0.023
   12  0.000  0.000  0.041  0.042
   13  0.004  0.001  0.018  0.023
   14  0.004  0.001  0.018  0.023
   15  0.003  0.001  0.023  0.026
   16  0.000  0.000  0.041  0.042