 vasp.6.2.0 18Jan21 (build Jun 12 2021 23:27:24) complex                        
  
 executed on             LinuxIFC date 2022.05.26  19:33:05
 running on   28 total cores
 distrk:  each k-point on   28 cores,    1 groups
 distr:  one band on NCORE=   1 cores,   28 groups


--------------------------------------------------------------------------------------------------------


 INCAR:
   ISMEAR = -5
   SIGMA = 0.1
   ISPIN = 1
   EDIFF = 1.d-5
   EDIFFG = -0.01
   NSW = 0
   NELM = 150
   ENCUT = 500
   ISIF = 2
   IBRION = 2
   LREAL = Auto
   ALGO = Fast
   ICHARG = 11
   LORBIT = 10
   LCHARG = .F.
   LWAVE = .F.

 POTCAR:    PAW_PBE Au 04Oct2007                  
 POTCAR:    PAW_PBE Re 17Jan2003                  
 POTCAR:    PAW_PBE N 08Apr2002                   
 -----------------------------------------------------------------------------
|                                                                             |
|           W    W    AA    RRRRR   N    N  II  N    N   GGGG   !!!           |
|           W    W   A  A   R    R  NN   N  II  NN   N  G    G  !!!           |
|           W    W  A    A  R    R  N N  N  II  N N  N  G       !!!           |
|           W WW W  AAAAAA  RRRRR   N  N N  II  N  N N  G  GGG   !            |
|           WW  WW  A    A  R   R   N   NN  II  N   NN  G    G                |
|           W    W  A    A  R    R  N    N  II  N    N   GGGG   !!!           |
|                                                                             |
|     For optimal performance we recommend to set                             |
|       NCORE = 2 up to number-of-cores-per-socket                            |
|     NCORE specifies how many cores store one orbital (NPAR=cpu/NCORE).      |
|     This setting can greatly improve the performance of VASP for DFT.       |
|     The default, NCORE=1 might be grossly inefficient on modern             |
|     multi-core architectures or massively parallel machines. Do your        |
|     own testing! More info at https://www.vasp.at/wiki/index.php/NCORE      |
|     Unfortunately you need to use the default for GW and RPA                |
|     calculations (for HF NCORE is supported but not extensively tested      |
|     yet).                                                                   |
|                                                                             |
 -----------------------------------------------------------------------------

 POTCAR:    PAW_PBE Au 04Oct2007                  
   VRHFIN =Au: s1d10                                                                                
   LEXCH  = PE                                                                                      
   EATOM  =   926.0867 eV,   68.0654 Ry                                                             
                                                                                                    
   TITEL  = PAW_PBE Au 04Oct2007                                                                    
   LULTRA =        F    use ultrasoft PP ?                                                          
   IUNSCR =        1    unscreen: 0-lin 1-nonlin 2-no                                               
   RPACOR =    2.330    partial core radius                                                         
   POMASS =  196.966; ZVAL   =   11.000    mass and valenz                                          
   RCORE  =    2.500    outmost cutoff radius                                                       
   RWIGS  =    2.840; RWIGS  =    1.503    wigner-seitz radius (au A)                               
   ENMAX  =  229.943; ENMIN  =  172.457 eV                                                          
   ICORE  =        3    local potential                                                             
   LCOR   =        T    correct aug charges                                                         
   LPAW   =        T    paw PP                                                                      
   EAUG   =  356.670                                                                                
   DEXC   =    0.000                                                                                
   RMAX   =    2.562    core radius for proj-oper                                                   
   RAUG   =    1.300    factor for augmentation sphere                                              
   RDEP   =    2.598    radius for radial grids                                                     
   RDEPT  =    2.193    core radius for aug-charge                                                  
                                                                                                    
   Atomic configuration                                                                             
   16 entries                                                                                       
     n  l   j            E        occ.                                                              
     1  0  0.50    -80748.5001   2.0000                                                             
     2  0  0.50    -14244.7466   2.0000                                                             
     2  1  1.50    -12310.9591   6.0000                                                             
     3  0  0.50     -3362.1768   2.0000                                                             
     3  1  1.50     -2801.5463   6.0000                                                             
     3  2  2.50     -2203.8206  10.0000                                                             
     4  0  0.50      -729.8168   2.0000                                                             
     4  1  1.50      -546.0527   6.0000                                                             
     4  2  2.50      -325.7302  10.0000                                                             
     4  3  3.50       -81.1472  14.0000                                                             
     5  0  0.50      -108.3201   2.0000                                                             
     5  1  1.50       -59.7479   6.0000                                                             
     5  2  2.50        -6.8783  10.0000                                                             
     6  0  0.50        -5.7602   1.0000                                                             
     6  1  1.50        -6.8029   0.0000                                                             
     5  3  2.50        -1.3606   0.0000                                                             
   Description                                                                                      
     l       E           TYP  RCUT    TYP  RCUT                                                     
     2     -6.8782861     23  2.500                                                                 
     2     -8.2388687     23  2.500                                                                 
     0     -5.7601759     23  2.500                                                                 
     0     -0.8493231     23  2.500                                                                 
     1     -2.7211652     23  2.500                                                                 
     1     27.2116520     23  2.500                                                                 
     3     -1.3605826     23  2.500                                                                 
  local pseudopotential read in
  partial core-charges read in
  partial kinetic energy density read in
  atomic valenz-charges read in
  non local Contribution for L=           2  read in
    real space projection operators read in
  non local Contribution for L=           2  read in
    real space projection operators read in
  non local Contribution for L=           0  read in
    real space projection operators read in
  non local Contribution for L=           0  read in
    real space projection operators read in
  non local Contribution for L=           1  read in
    real space projection operators read in
  non local Contribution for L=           1  read in
    real space projection operators read in
    PAW grid and wavefunctions read in
 
   number of l-projection  operators is LMAX  =           6
   number of lm-projection operators is LMMAX =          18
 
 POTCAR:    PAW_PBE Re 17Jan2003                  
   VRHFIN =Re: 5p6s5d                                                                               
   LEXCH  = PE                                                                                      
   EATOM  =   299.6589 eV,   22.0243 Ry                                                             
                                                                                                    
   TITEL  = PAW_PBE Re 17Jan2003                                                                    
   LULTRA =        F    use ultrasoft PP ?                                                          
   IUNSCR =        1    unscreen: 0-lin 1-nonlin 2-no                                               
   RPACOR =    2.250    partial core radius                                                         
   POMASS =  186.207; ZVAL   =    7.000    mass and valenz                                          
   RCORE  =    2.700    outmost cutoff radius                                                       
   RWIGS  =    2.710; RWIGS  =    1.434    wigner-seitz radius (au A)                               
   ENMAX  =  226.216; ENMIN  =  169.662 eV                                                          
   RCLOC  =    2.105    cutoff for local pot                                                        
   LCOR   =        T    correct aug charges                                                         
   LPAW   =        T    paw PP                                                                      
   EAUG   =  370.280                                                                                
   DEXC   =    0.000                                                                                
   RMAX   =    2.768    core radius for proj-oper                                                   
   RAUG   =    1.300    factor for augmentation sphere                                              
   RDEP   =    2.719    radius for radial grids                                                     
   RDEPT  =    2.204    core radius for aug-charge                                                  
                                                                                                    
   Atomic configuration                                                                             
   16 entries                                                                                       
     n  l   j            E        occ.                                                              
     1  0  0.50    -71633.0043   2.0000                                                             
     2  0  0.50    -12416.1215   2.0000                                                             
     2  1  1.50    -10832.4223   6.0000                                                             
     3  0  0.50     -2872.9330   2.0000                                                             
     3  1  1.50     -2406.1720   6.0000                                                             
     3  2  2.50     -1877.8916  10.0000                                                             
     4  0  0.50      -597.8463   2.0000                                                             
     4  1  1.50      -444.8000   6.0000                                                             
     4  2  2.50      -252.9938  10.0000                                                             
     4  3  3.50       -40.1243  14.0000                                                             
     5  0  0.50       -83.0609   2.0000                                                             
     5  1  1.50       -44.9781   6.0000                                                             
     5  2  2.50        -4.0055   6.0000                                                             
     6  0  0.50        -5.2962   1.0000                                                             
     6  1  1.50        -2.7212   0.0000                                                             
     5  3  2.50        -1.3606   0.0000                                                             
   Description                                                                                      
     l       E           TYP  RCUT    TYP  RCUT                                                     
     2     -4.0054887     23  2.500                                                                 
     2     -2.6236470     23  2.500                                                                 
     0     -5.2961782     23  2.600                                                                 
     0      4.1641227     23  2.600                                                                 
     1     -2.7211652     23  2.700                                                                 
     1     27.2116520     23  2.700                                                                 
  local pseudopotential read in
  partial core-charges read in
  partial kinetic energy density read in
  kinetic energy density of atom read in
  atomic valenz-charges read in
  non local Contribution for L=           2  read in
    real space projection operators read in
  non local Contribution for L=           2  read in
    real space projection operators read in
  non local Contribution for L=           0  read in
    real space projection operators read in
  non local Contribution for L=           0  read in
    real space projection operators read in
  non local Contribution for L=           1  read in
    real space projection operators read in
  non local Contribution for L=           1  read in
    real space projection operators read in
    PAW grid and wavefunctions read in
 
   number of l-projection  operators is LMAX  =           6
   number of lm-projection operators is LMMAX =          18
 
 POTCAR:    PAW_PBE N 08Apr2002                   
   VRHFIN =N: s2p3                                                                                  
   LEXCH  = PE                                                                                      
   EATOM  =   264.5486 eV,   19.4438 Ry                                                             
                                                                                                    
   TITEL  = PAW_PBE N 08Apr2002                                                                     
   LULTRA =        F    use ultrasoft PP ?                                                          
   IUNSCR =        1    unscreen: 0-lin 1-nonlin 2-no                                               
   RPACOR =    1.200    partial core radius                                                         
   POMASS =   14.001; ZVAL   =    5.000    mass and valenz                                          
   RCORE  =    1.500    outmost cutoff radius                                                       
   RWIGS  =    1.400; RWIGS  =    0.741    wigner-seitz radius (au A)                               
   ENMAX  =  400.000; ENMIN  =  300.000 eV                                                          
   ICORE  =        2    local potential                                                             
   LCOR   =        T    correct aug charges                                                         
   LPAW   =        T    paw PP                                                                      
   EAUG   =  627.112                                                                                
   DEXC   =    0.000                                                                                
   RMAX   =    1.529    core radius for proj-oper                                                   
   RAUG   =    1.300    factor for augmentation sphere                                              
   RDEP   =    1.514    radius for radial grids                                                     
   RDEPT  =    1.338    core radius for aug-charge                                                  
                                                                                                    
   Atomic configuration                                                                             
    4 entries                                                                                       
     n  l   j            E        occ.                                                              
     1  0  0.50      -384.7179   2.0000                                                             
     2  0  0.50       -18.5828   2.0000                                                             
     2  1  0.50        -7.0898   3.0000                                                             
     3  2  1.50        -6.8029   0.0000                                                             
   Description                                                                                      
     l       E           TYP  RCUT    TYP  RCUT                                                     
     0    -18.5828119     23  1.200                                                                 
     0    -13.5018863     23  1.200                                                                 
     1     -7.0897853     23  1.500                                                                 
     1      9.5240782     23  1.500                                                                 
     2     -6.8029130      7  1.500                                                                 
  local pseudopotential read in
  partial core-charges read in
  partial kinetic energy density read in
  atomic valenz-charges read in
  non local Contribution for L=           0  read in
    real space projection operators read in
  non local Contribution for L=           0  read in
    real space projection operators read in
  non local Contribution for L=           1  read in
    real space projection operators read in
  non local Contribution for L=           1  read in
    real space projection operators read in
    PAW grid and wavefunctions read in
 
   number of l-projection  operators is LMAX  =           4
   number of lm-projection operators is LMMAX =           8
 
 Optimization of the real space projectors (new method)

 maximal supplied QI-value         = 15.12
 optimisation between [QCUT,QGAM] = [ 11.34, 22.83] = [ 36.00,145.93] Ry 
 Optimized for a Real-space Cutoff    1.39 Angstroem

   l    n(q)    QCUT    max X(q) W(low)/X(q) W(high)/X(q)  e(spline) 
   2      9    11.338    60.898    0.39E-03    0.42E-03    0.21E-06
   2      9    11.338    58.894    0.40E-03    0.42E-03    0.22E-06
   0      9    11.338   109.617    0.13E-03    0.20E-04    0.13E-06
   0      9    11.338    75.026    0.13E-03    0.20E-04    0.13E-06
   1      9    11.338    16.344    0.33E-04    0.24E-03    0.18E-06
   1      9    11.338    10.160    0.26E-04    0.19E-03    0.15E-06
 Optimization of the real space projectors (new method)

 maximal supplied QI-value         = 13.98
 optimisation between [QCUT,QGAM] = [ 11.33, 22.79] = [ 35.93,145.49] Ry 
 Optimized for a Real-space Cutoff    1.56 Angstroem

   l    n(q)    QCUT    max X(q) W(low)/X(q) W(high)/X(q)  e(spline) 
   2     10    11.327   884.633    0.22E-03    0.51E-03    0.88E-06
   2     10    11.327   796.723    0.22E-03    0.51E-03    0.88E-06
   0     11    11.327    65.348    0.44E-04    0.11E-03    0.75E-06
   0     11    11.327    39.642    0.40E-04    0.10E-03    0.69E-06
   1     10    11.327    13.988    0.15E-03    0.10E-03    0.19E-06
   1     10    11.327     8.682    0.11E-03    0.76E-04    0.14E-06
 Optimization of the real space projectors (new method)

 maximal supplied QI-value         = 25.13
 optimisation between [QCUT,QGAM] = [ 11.31, 22.87] = [ 35.82,146.48] Ry 
 Optimized for a Real-space Cutoff    1.27 Angstroem

   l    n(q)    QCUT    max X(q) W(low)/X(q) W(high)/X(q)  e(spline) 
   0      9    11.310    79.467    0.75E-04    0.16E-03    0.36E-06
   0      9    11.310    66.151    0.74E-04    0.16E-03    0.36E-06
   1      8    11.310    17.416    0.35E-03    0.12E-03    0.95E-06
   1      8    11.310    12.382    0.37E-03    0.13E-03    0.98E-06
  PAW_PBE Au 04Oct2007                  :
 energy of atom  1       EATOM= -926.0867
 kinetic energy error for atom=    0.0042 (will be added to EATOM!!)
  PAW_PBE Re 17Jan2003                  :
 energy of atom  2       EATOM= -299.6589
 kinetic energy error for atom=    0.0023 (will be added to EATOM!!)
  PAW_PBE N 08Apr2002                   :
 energy of atom  3       EATOM= -264.5486
 kinetic energy error for atom=    0.0138 (will be added to EATOM!!)
 
 
 POSCAR: Au-Re-N
  positions in direct lattice
  velocities in cartesian coordinates
 exchange correlation table for  LEXCH =        8
   RHO(1)=    0.500       N(1)  =     2000
   RHO(2)=  100.500       N(2)  =     4000

 VTST: version 3.2, (02/03/18)

 CHAIN: initializing optimizer
 
 OPT: Using VASP Conjugate-Gradient optimizer
 CHAIN: Read ICHAIN            0
 
 POSCAR: Au-Re-N
  positions in direct lattice
  velocities in cartesian coordinates
 


--------------------------------------------------------------------------------------------------------


 ion  position               nearest neighbor table
   1  0.000  0.000  0.238-  16 2.94  12 2.94   6 2.94   8 2.94   7 2.94   3 2.94  10 2.94   4 2.94
                             2 2.94
   2  0.333  0.000  0.238-   9 2.94  11 2.94  17 2.94  10 2.94   8 2.94   4 2.94   5 2.94   1 2.94
                             3 2.94
   3  0.667  0.000  0.238-   7 2.94  18 2.94  12 2.94   1 2.94  11 2.94   5 2.94   6 2.94   9 2.94
                             2 2.94
   4  0.000  0.333  0.238-  10 2.94   6 2.94   5 2.94  13 2.94   2 2.94  15 2.94   9 2.94   1 2.94
                             7 2.94
   5  0.333  0.333  0.238-  13 2.94   7 2.94  11 2.94   4 2.94   2 2.94  14 2.94   3 2.94   8 2.94
                             6 2.94
   6  0.667  0.333  0.238-  15 2.94  14 2.94   1 2.94  12 2.94   4 2.94   9 2.94   8 2.94   3 2.94
                             5 2.94
   7  0.000  0.667  0.238-  18 2.94   3 2.94  16 2.94   5 2.94   1 2.94  13 2.94   8 2.94   4 2.94
                             9 2.94
   8  0.333  0.667  0.238-   9 2.94  17 2.94   1 2.94   2 2.94  14 2.94  16 2.94   6 2.94   7 2.94
                             5 2.94
   9  0.667  0.667  0.238-   2 2.94   8 2.94  17 2.94   6 2.94  15 2.94   4 2.94   3 2.94  18 2.94
                             7 2.94
  10  0.111  0.111  0.346-  20 2.90  11 2.94  17 2.94   2 2.94   4 2.94   1 2.94  12 2.94  16 2.94
                            13 2.94  15 2.94  26 2.96  19 2.96
  11  0.444  0.111  0.346-  20 2.91  21 2.91  13 2.94   2 2.94  10 2.94  17 2.94   5 2.94   3 2.94
                            18 2.94  14 2.94  12 2.94  27 2.94
  12  0.778  0.111  0.346-  21 2.90  16 2.94  18 2.94   1 2.94  14 2.94  15 2.94   3 2.94   6 2.94
                            10 2.94  11 2.94  25 2.96  19 2.96
  13  0.111  0.444  0.346-  23 2.91  20 2.91   5 2.94  18 2.94  11 2.94   7 2.94   4 2.94  16 2.94
                            10 2.94  14 2.94  15 2.94  22 2.94
  14  0.444  0.444  0.346-  21 2.91  23 2.91  15 2.94   6 2.94  12 2.94   8 2.94  17 2.94   5 2.94
                            16 2.94  13 2.94  11 2.94  24 2.94
  15  0.778  0.444  0.346-  24 2.92  22 2.92  14 2.94   6 2.94  17 2.94  12 2.94   9 2.94   4 2.94
                            10 2.94  13 2.94  18 2.94  19 2.95
  16  0.111  0.778  0.346-  23 2.90  18 2.94  12 2.94   7 2.94   1 2.94   8 2.94  13 2.94  10 2.94
                            14 2.94  17 2.94  25 2.96  26 2.96
  17  0.444  0.778  0.346-  27 2.92  24 2.92   9 2.94  15 2.94   2 2.94  10 2.94  11 2.94   8 2.94
                            14 2.94  16 2.94  18 2.94  26 2.95
  18  0.778  0.778  0.346-  22 2.92  27 2.92  16 2.94   7 2.94  13 2.94  12 2.94   3 2.94  11 2.94
                             9 2.94  15 2.94  17 2.94  25 2.95
  19  0.888  0.224  0.455-  24 2.93  22 2.93  21 2.93  20 2.93  28 2.94  15 2.95  26 2.96  25 2.96
                            10 2.96  12 2.96  32 3.02  31 3.02
  20  0.222  0.222  0.452-  36 2.75  10 2.90  11 2.91  13 2.91  26 2.93  19 2.93  23 2.95  21 2.95
                            27 2.96  22 2.96  29 2.97  31 2.97
  21  0.556  0.222  0.452-  36 2.75  12 2.90  14 2.91  11 2.91  25 2.93  19 2.93  20 2.95  23 2.95
                            27 2.96  24 2.96  30 2.97  32 2.97
  22  0.886  0.557  0.454-  24 2.90  27 2.90  18 2.92  15 2.92  25 2.93  19 2.93  13 2.94  35 2.95
                            23 2.96  20 2.96  33 3.00  31 3.00
  23  0.222  0.556  0.452-  36 2.75  16 2.90  13 2.91  14 2.91  25 2.93  26 2.93  20 2.95  21 2.95
                            22 2.96  24 2.96  33 2.97  34 2.97
  24  0.557  0.557  0.454-  27 2.90  22 2.90  15 2.92  17 2.92  26 2.93  19 2.93  14 2.94  35 2.95
                            21 2.96  23 2.96  32 3.00  34 3.00
  25  0.888  0.888  0.455-  22 2.93  27 2.93  23 2.93  21 2.93  28 2.94  18 2.95  19 2.96  26 2.96
                            16 2.96  12 2.96  33 3.02  30 3.02
  26  0.224  0.888  0.455-  27 2.93  24 2.93  20 2.93  23 2.93  28 2.94  17 2.95  19 2.96  25 2.96
                            10 2.96  16 2.96  29 3.02  34 3.02
  27  0.557  0.886  0.454-  24 2.90  22 2.90  17 2.92  18 2.92  26 2.93  25 2.93  11 2.94  35 2.95
                            20 2.96  21 2.96  29 3.00  30 3.00
  28  0.000  0.000  0.563-  25 2.94  19 2.94  26 2.94  34 2.99  32 2.99  33 2.99  30 2.99  31 2.99
                            29 2.99
  29  0.333  0.011  0.565-  30 2.84  31 2.84  36 2.86  20 2.97  35 2.99  28 2.99  27 3.00  26 3.02
                            34 3.14
  30  0.655  0.011  0.565-  29 2.84  32 2.84  36 2.86  21 2.97  35 2.99  28 2.99  27 3.00  25 3.02
                            33 3.14
  31  0.011  0.333  0.565-  33 2.84  29 2.84  36 2.86  20 2.97  35 2.99  28 2.99  22 3.00  19 3.02
                            32 3.14
  32  0.655  0.333  0.565-  34 2.84  30 2.84  36 2.86  21 2.97  35 2.99  28 2.99  24 3.00  19 3.02
                            31 3.14
  33  0.011  0.655  0.565-  31 2.84  34 2.84  36 2.86  23 2.97  35 2.99  28 2.99  22 3.00  25 3.02
                            30 3.14
  34  0.333  0.655  0.565-  32 2.84  33 2.84  36 2.86  23 2.97  35 2.99  28 2.99  24 3.00  26 3.02
                            29 3.14
  35  0.667  0.667  0.563-  24 2.95  27 2.95  22 2.95  29 2.99  34 2.99  32 2.99  31 2.99  30 2.99
                            33 2.99
  36  0.333  0.333  0.550-  37 1.71  20 2.75  23 2.75  21 2.75  33 2.86  31 2.86  29 2.86  30 2.86
                            34 2.86  32 2.86
  37  0.333  0.333  0.627-  36 1.71
 
  LATTYP: Found a hexagonal cell.
 ALAT       =     8.8135128021
 C/A-ratio  =     2.5184286595
  
  Lattice vectors:
  
 A1 = (  -4.4067569092,  -7.6327256898,   0.0000000000)
 A2 = (   8.8135128021,   0.0000000000,   0.0000000000)
 A3 = (   0.0000000000,   0.0000000000,  22.1962032318)


Analysis of symmetry for initial positions (statically):
=====================================================================
 Subroutine PRICEL returns:
 Original cell was already a primitive cell.
 

 Routine SETGRP: Setting up the symmetry group for a 
 hexagonal supercell.


 Subroutine GETGRP returns: Found  6 space group operations
 (whereof  6 operations were pure point group operations)
 out of a pool of 24 trial point group operations.


The static configuration has the point symmetry C_3v.


Analysis of symmetry for dynamics (positions and initial velocities):
=====================================================================
 Subroutine PRICEL returns:
 Original cell was already a primitive cell.
 

 Routine SETGRP: Setting up the symmetry group for a 
 hexagonal supercell.


 Subroutine GETGRP returns: Found  6 space group operations
 (whereof  6 operations were pure point group operations)
 out of a pool of 24 trial point group operations.


The dynamic configuration has the point symmetry C_3v.


Analysis of constrained symmetry for selective dynamics:
=====================================================================
 Subroutine PRICEL returns:
 Original cell was already a primitive cell.
 

 Routine SETGRP: Setting up the symmetry group for a 
 hexagonal supercell.


 Subroutine GETGRP returns: Found  6 space group operations
 (whereof  6 operations were pure point group operations)
 out of a pool of 24 trial point group operations.


The constrained configuration has the point symmetry C_3v.


 Subroutine INISYM returns: Found  6 space group operations
 (whereof  6 operations are pure point group operations),
 and found     1 'primitive' translations


----------------------------------------------------------------------------------------

                                     Primitive cell                                     

  volume of cell :    1493.1636

  direct lattice vectors                    reciprocal lattice vectors
     8.813512802  0.000000000  0.000000000     0.113462137 -0.065507406  0.000000000
     4.406756909  7.632725690  0.000000000     0.000000000  0.131014796  0.000000000
     0.000000000  0.000000000 22.196203232     0.000000000  0.000000000  0.045052750

  length of vectors
     8.813512802  8.813512802 22.196203232     0.131014796  0.131014796  0.045052750

  position of ions in fractional coordinates (direct lattice)
     0.000000000  0.000000000  0.237895638
     0.333333343  0.000000000  0.237895638
     0.666666687  0.000000000  0.237895638
     1.000000000  0.333333343  0.237895638
     0.333333313  0.333333343  0.237895638
     0.666666687  0.333333343  0.237895638
     1.000000000  0.666666687  0.237895638
     0.333333343  0.666666687  0.237895638
     0.666666627  0.666666687  0.237895638
     0.111111119  0.111111112  0.345965207
     0.444444418  0.111111112  0.345965207
     0.777777791  0.111111112  0.345965207
     0.111111127  0.444444448  0.345965207
     0.444444478  0.444444448  0.345965207
     0.777777731  0.444444448  0.345965207
     0.111111090  0.777777791  0.345965207
     0.444444448  0.777777791  0.345965207
     0.777777851  0.777777791  0.345965207
     0.888205444  0.223589128  0.455001659
     0.221939694  0.221939679  0.452218283
     0.556120671  0.221939679  0.452218283
     0.886159616  0.556920222  0.453542355
     0.221939649  0.556120671  0.452218283
     0.556920222  0.556920222  0.453542355
     0.888205444  0.888205444  0.455001659
     0.223589158  0.888205444  0.455001659
     0.556920162  0.886159616  0.453542355
     0.000000000  0.000000000  0.563085188
     0.333363825  0.011378594  0.564770939
     0.655257611  0.011378594  0.564770939
     0.011378594  0.333363825  0.564770939
     0.655257611  0.333363825  0.564770939
     0.011378594  0.655257611  0.564770939
     0.333363825  0.655257611  0.564770939
     0.666666627  0.666666687  0.562991658
     0.333333313  0.333333343  0.549857197
     0.333333313  0.333333343  0.626681601

  ion indices of the primitive-cell ions
   primitive index   ion index
                 1           1
                 2           2
                 3           3
                 4           4
                 5           5
                 6           6
                 7           7
                 8           8
                 9           9
                10          10
                11          11
                12          12
                13          13
                14          14
                15          15
                16          16
                17          17
                18          18
                19          19
                20          20
                21          21
                22          22
                23          23
                24          24
                25          25
                26          26
                27          27
                28          28
                29          29
                30          30
                31          31
                32          32
                33          33
                34          34
                35          35
                36          36
                37          37

----------------------------------------------------------------------------------------

 
 
 KPOINTS: Automatic mesh                          

Automatic generation of k-mesh.
 Grid dimensions read from file:
 generate k-points for:    8    8    1

 Generating k-lattice:

  Cartesian coordinates                     Fractional coordinates (reciprocal lattice)
     0.014182767 -0.008188426  0.000000000     0.125000000 -0.000000000  0.000000000
     0.000000000  0.016376850  0.000000000     0.000000000  0.125000000  0.000000000
     0.000000000  0.000000000  0.045052750     0.000000000  0.000000000  1.000000000

  Length of vectors
     0.016376850  0.016376850  0.045052750

  Shift w.r.t. Gamma in fractional coordinates (k-lattice)
     0.000000000  0.000000000  0.000000000

 TETIRR: Found     36 inequivalent tetrahedra from      384
 
 Subroutine IBZKPT returns following result:
 ===========================================
 
 Found     10 irreducible k-points:
 
 Following reciprocal coordinates:
            Coordinates               Weight
  0.000000  0.000000  0.000000      1.000000
  0.125000 -0.000000  0.000000      6.000000
  0.250000 -0.000000  0.000000      6.000000
  0.375000  0.000000  0.000000      6.000000
  0.500000 -0.000000  0.000000      3.000000
  0.250000  0.125000  0.000000      6.000000
  0.375000  0.125000  0.000000     12.000000
  0.500000  0.125000  0.000000     12.000000
  0.500000  0.250000  0.000000      6.000000
 -0.375000  0.250000  0.000000      6.000000
 
 Following cartesian coordinates:
            Coordinates               Weight
  0.000000  0.000000  0.000000      1.000000
  0.014183 -0.008188  0.000000      6.000000
  0.028366 -0.016377  0.000000      6.000000
  0.042548 -0.024565  0.000000      6.000000
  0.056731 -0.032754  0.000000      3.000000
  0.028366 -0.000000  0.000000      6.000000
  0.042548 -0.008188  0.000000     12.000000
  0.056731 -0.016377  0.000000     12.000000
  0.056731 -0.000000  0.000000      6.000000
 -0.042548  0.057319  0.000000      6.000000
 


--------------------------------------------------------------------------------------------------------




 Dimension of arrays:
   k-points           NKPTS =     10   k-points in BZ     NKDIM =     10   number of bands    NBANDS=    252
   number of dos      NEDOS =    301   number of ions     NIONS =     37
   non local maximal  LDIM  =      6   non local SUM 2l+1 LMDIM =     18
   total plane-waves  NPLWV = 290304
   max r-space proj   IRMAX =   3166   max aug-charges    IRDMAX=  12088
   dimension x,y,z NGX =    48 NGY =   48 NGZ =  126
   dimension x,y,z NGXF=    96 NGYF=   96 NGZF=  252
   support grid    NGXF=    96 NGYF=   96 NGZF=  252
   ions per type =              35   1   1
   NGX,Y,Z   is equivalent  to a cutoff of   9.05,  9.05,  9.44 a.u.
   NGXF,Y,Z  is equivalent  to a cutoff of  18.11, 18.11, 18.87 a.u.

 SYSTEM =  unknown system                          
 POSCAR =  Au-Re-N                                 

 Startparameter for this run:
   NWRITE =      2    write-flag & timer
   PREC   = normal    normal or accurate (medium, high low for compatibility)
   ISTART =      0    job   : 0-new  1-cont  2-samecut
   ICHARG =     11    charge: 1-file 2-atom 10-const
   ISPIN  =      1    spin polarized calculation?
   LNONCOLLINEAR =      F non collinear calculations
   LSORBIT =      F    spin-orbit coupling
   INIWAV =      1    electr: 0-lowe 1-rand  2-diag
   LASPH  =      F    aspherical Exc in radial PAW
   METAGGA=      F    non-selfconsistent MetaGGA calc.

 Electronic Relaxation 1
   ENCUT  =  500.0 eV  36.75 Ry    6.06 a.u.  16.07 16.07 40.47*2*pi/ulx,y,z
   ENINI  =  500.0     initial cutoff
   ENAUG  =  627.1 eV  augmentation charge cutoff
   NELM   =    150;   NELMIN=  2; NELMDL= -5     # of ELM steps 
   EDIFF  = 0.1E-04   stopping-criterion for ELM
   LREAL  =      T    real-space projection
   NLSPLINE    = F    spline interpolate recip. space projectors
   LCOMPAT=      F    compatible to vasp.4.4
   GGA_COMPAT  = T    GGA compatible to vasp.4.4-vasp.4.6
   LMAXPAW     = -100 max onsite density
   LMAXMIX     =    2 max onsite mixed and CHGCAR
   VOSKOWN=      0    Vosko Wilk Nusair interpolation
   ROPT   =   -0.00050  -0.00050  -0.00050
 Ionic relaxation
   EDIFFG = -.1E-01   stopping-criterion for IOM
   NSW    =      0    number of steps for IOM
   NBLOCK =      1;   KBLOCK =      1    inner block; outer block 
   IBRION =     -1    ionic relax: 0-MD 1-quasi-New 2-CG
   NFREE  =      1    steps in history (QN), initial steepest desc. (CG)
   ISIF   =      2    stress and relaxation
   IWAVPR =     10    prediction:  0-non 1-charg 2-wave 3-comb
   ISYM   =      2    0-nonsym 1-usesym 2-fastsym
   LCORR  =      T    Harris-Foulkes like correction to forces

   POTIM  = 0.5000    time-step for ionic-motion
   TEIN   =    0.0    initial temperature
   TEBEG  =    0.0;   TEEND  =   0.0 temperature during run
   SMASS  =  -3.00    Nose mass-parameter (am)
   estimated Nose-frequenzy (Omega)   =  0.10E-29 period in steps = 0.13E+47 mass=  -0.178E-26a.u.
   SCALEE = 1.0000    scale energy and forces
   NPACO  =    256;   APACO  = 16.0  distance and # of slots for P.C.
   PSTRESS=    0.0 pullay stress

  Mass of Ions in am
   POMASS = 196.97186.21 14.00
  Ionic Valenz
   ZVAL   =  11.00  7.00  5.00
  Atomic Wigner-Seitz radii
   RWIGS  =  -1.00 -1.00 -1.00
  virtual crystal weights 
   VCA    =   1.00  1.00  1.00
   NELECT =     397.0000    total number of electrons
   NUPDOWN=      -1.0000    fix difference up-down

 DOS related values:
   EMIN   =  10.00;   EMAX   =-10.00  energy-range for DOS
   EFERMI =   0.00
   ISMEAR =    -5;   SIGMA  =   0.10  broadening in eV -4-tet -1-fermi 0-gaus

 Electronic relaxation 2 (details)
   IALGO  =     68    algorithm
   LDIAG  =      T    sub-space diagonalisation (order eigenvalues)
   LSUBROT=      F    optimize rotation matrix (better conditioning)
   TURBO    =      0    0=normal 1=particle mesh
   IRESTART =      0    0=no restart 2=restart with 2 vectors
   NREBOOT  =      0    no. of reboots
   NMIN     =      0    reboot dimension
   EREF     =   0.00    reference energy to select bands
   IMIX   =      4    mixing-type and parameters
     AMIX     =   0.40;   BMIX     =  1.00
     AMIX_MAG =   1.60;   BMIX_MAG =  1.00
     AMIN     =   0.10
     WC   =   100.;   INIMIX=   1;  MIXPRE=   1;  MAXMIX= -45

 Intra band minimization:
   WEIMIN = 0.0000     energy-eigenvalue tresh-hold
   EBREAK =  0.99E-08  absolut break condition
   DEPER  =   0.30     relativ break condition  

   TIME   =   0.40     timestep for ELM

  volume/ion in A,a.u.               =      40.36       272.33
  Fermi-wavevector in a.u.,A,eV,Ry     =   1.052695  1.989305 15.077523  1.108167
  Thomas-Fermi vector in A             =   2.187788
 
 Write flags
   LWAVE        =      F    write WAVECAR
   LDOWNSAMPLE  =      F    k-point downsampling of WAVECAR
   LCHARG       =      F    write CHGCAR
   LVTOT        =      F    write LOCPOT, total local potential
   LVHAR        =      F    write LOCPOT, Hartree potential only
   LELF         =      F    write electronic localiz. function (ELF)
   LORBIT       =     10    0 simple, 1 ext, 2 COOP (PROOUT), +10 PAW based schemes


 Dipole corrections
   LMONO  =      F    monopole corrections only (constant potential shift)
   LDIPOL =      F    correct potential (dipole corrections)
   IDIPOL =      0    1-x, 2-y, 3-z, 4-all directions 
   EPSILON=  1.0000000 bulk dielectric constant

 Exchange correlation treatment:
   GGA     =    --    GGA type
   LEXCH   =     8    internal setting for exchange type
   VOSKOWN=      0    Vosko Wilk Nusair interpolation
   LHFCALC =     F    Hartree Fock is set to
   LHFONE  =     F    Hartree Fock one center treatment
   AEXX    =    0.0000 exact exchange contribution

 Linear response parameters
   LEPSILON=     F    determine dielectric tensor
   LRPA    =     F    only Hartree local field effects (RPA)
   LNABLA  =     F    use nabla operator in PAW spheres
   LVEL    =     F    velocity operator in full k-point grid
   LINTERFAST=   F  fast interpolation
   KINTER  =     0    interpolate to denser k-point grid
   CSHIFT  =0.1000    complex shift for real part using Kramers Kronig
   OMEGAMAX=  -1.0    maximum frequency
   DEG_THRESHOLD= 0.2000000E-02 threshold for treating states as degnerate
   RTIME   =   -0.100 relaxation time in fs
  (WPLASMAI=    0.000 imaginary part of plasma frequency in eV, 0.658/RTIME)
   DFIELD  = 0.0000000 0.0000000 0.0000000 field for delta impulse in time
 
 Orbital magnetization related:
   ORBITALMAG=     F  switch on orbital magnetization
   LCHIMAG   =     F  perturbation theory with respect to B field
   DQ        =  0.001000  dq finite difference perturbation B field
   LLRAUG    =     F  two centre corrections for induced B field



--------------------------------------------------------------------------------------------------------


 Static calculation
 charge density and potential remain constant during run
 non-spin polarized calculation
 RMM-DIIS sequential band-by-band and
  variant of blocked Davidson during initial phase
 perform sub-space diagonalisation
    before iterative eigenvector-optimisation
 no mixing
 using additional bands           53
 real space projection scheme for non local part
 use partial core corrections
 calculate Harris-corrections to forces 
   (improved forces if not selfconsistent)
 use gradient corrections 
 WARNING: stress and forces are not correct
  (second derivative of E(xc) not defined)
 use of overlap-Matrix (Vanderbilt PP)
 Fermi weights with tetrahedron method with Bloechl corrections


--------------------------------------------------------------------------------------------------------


  energy-cutoff  :      500.00
  volume of cell :     1493.16
      direct lattice vectors                 reciprocal lattice vectors
     8.813512802  0.000000000  0.000000000     0.113462137 -0.065507406  0.000000000
     4.406756909  7.632725690  0.000000000     0.000000000  0.131014796  0.000000000
     0.000000000  0.000000000 22.196203232     0.000000000  0.000000000  0.045052750

  length of vectors
     8.813512802  8.813512802 22.196203232     0.131014796  0.131014796  0.045052750


 
 k-points in units of 2pi/SCALE and weight: Automatic mesh                          
   0.00000000  0.00000000  0.00000000       0.016
   0.01418277 -0.00818843  0.00000000       0.094
   0.02836553 -0.01637685  0.00000000       0.094
   0.04254830 -0.02456528  0.00000000       0.094
   0.05673107 -0.03275370  0.00000000       0.047
   0.02836553 -0.00000000  0.00000000       0.094
   0.04254830 -0.00818843  0.00000000       0.188
   0.05673107 -0.01637685  0.00000000       0.188
   0.05673107 -0.00000000  0.00000000       0.094
  -0.04254830  0.05731898  0.00000000       0.094
 
 k-points in reciprocal lattice and weights: Automatic mesh                          
   0.00000000  0.00000000  0.00000000       0.016
   0.12500000 -0.00000000  0.00000000       0.094
   0.25000000 -0.00000000  0.00000000       0.094
   0.37500000  0.00000000  0.00000000       0.094
   0.50000000 -0.00000000  0.00000000       0.047
   0.25000000  0.12500000  0.00000000       0.094
   0.37500000  0.12500000  0.00000000       0.188
   0.50000000  0.12500000  0.00000000       0.188
   0.50000000  0.25000000  0.00000000       0.094
  -0.37500000  0.25000000  0.00000000       0.094
 
 position of ions in fractional coordinates (direct lattice) 
   0.00000000  0.00000000  0.23789564
   0.33333334  0.00000000  0.23789564
   0.66666669  0.00000000  0.23789564
   0.00000000  0.33333334  0.23789564
   0.33333331  0.33333334  0.23789564
   0.66666669  0.33333334  0.23789564
   0.00000000  0.66666669  0.23789564
   0.33333334  0.66666669  0.23789564
   0.66666663  0.66666669  0.23789564
   0.11111112  0.11111111  0.34596521
   0.44444442  0.11111111  0.34596521
   0.77777779  0.11111111  0.34596521
   0.11111113  0.44444445  0.34596521
   0.44444448  0.44444445  0.34596521
   0.77777773  0.44444445  0.34596521
   0.11111109  0.77777779  0.34596521
   0.44444445  0.77777779  0.34596521
   0.77777785  0.77777779  0.34596521
   0.88820544  0.22358913  0.45500166
   0.22193969  0.22193968  0.45221828
   0.55612067  0.22193968  0.45221828
   0.88615962  0.55692022  0.45354236
   0.22193965  0.55612067  0.45221828
   0.55692022  0.55692022  0.45354236
   0.88820544  0.88820544  0.45500166
   0.22358916  0.88820544  0.45500166
   0.55692016  0.88615962  0.45354236
   0.00000000  0.00000000  0.56308519
   0.33336383  0.01137859  0.56477094
   0.65525761  0.01137859  0.56477094
   0.01137859  0.33336383  0.56477094
   0.65525761  0.33336383  0.56477094
   0.01137859  0.65525761  0.56477094
   0.33336383  0.65525761  0.56477094
   0.66666663  0.66666669  0.56299166
   0.33333331  0.33333334  0.54985720
   0.33333331  0.33333334  0.62668160
 
 position of ions in cartesian coordinates  (Angst):
   0.00000000  0.00000000  5.28037993
   2.93783769  0.00000000  5.28037993
   5.87567538  0.00000000  5.28037993
   1.46891901  2.54424197  5.28037993
   4.40675643  2.54424197  5.28037993
   7.34459439  2.54424197  5.28037993
   2.93783803  5.08848395  5.28037993
   5.87567571  5.08848395  5.28037993
   8.81351288  5.08848395  5.28037993
   1.46891893  0.84808064  7.67911405
   4.40675623  0.84808064  7.67911405
   7.34459418  0.84808064  7.67911405
   2.93783798  3.39232256  7.67911405
   5.87567574  3.39232256  7.67911405
   8.81351263  3.39232256  7.67911405
   4.40675667  5.93656453  7.67911405
   7.34459449  5.93656453  7.67911405
  10.28243270  5.93656453  7.67911405
   8.81351299  1.70659448 10.09930928
   2.93410255  1.69400469 10.03752891
   5.87941087  1.69400469 10.03752891
  10.26439116  4.25081928 10.06691829
   4.40675655  4.24471653 10.03752891
   7.36263554  4.25081928 10.06691829
  11.74231553  6.77942851 10.09930928
   5.88471138  6.77942851 10.09930928
   8.81351299  6.76381327 10.06691829
   0.00000000  0.00000000 12.49835327
   2.98824904  0.08684969 12.53577053
   5.82526404  0.08684969 12.53577053
   1.56933872  2.54447463 12.53577053
   7.24417468  2.54447463 12.53577053
   2.98784639  5.00140160 12.53577053
   5.82566735  5.00140160 12.53577053
   8.81351288  5.08848395 12.49627727
   4.40675643  2.54424197 12.20474210
   4.40675643  2.54424197 13.90995219
 


--------------------------------------------------------------------------------------------------------


 k-point   1 :   0.0000 0.0000 0.0000  plane waves:   37827
 k-point   2 :   0.1250-0.0000 0.0000  plane waves:   37876
 k-point   3 :   0.2500-0.0000 0.0000  plane waves:   37924
 k-point   4 :   0.3750 0.0000 0.0000  plane waves:   37904
 k-point   5 :   0.5000-0.0000 0.0000  plane waves:   37912
 k-point   6 :   0.2500 0.1250 0.0000  plane waves:   37858
 k-point   7 :   0.3750 0.1250 0.0000  plane waves:   37928
 k-point   8 :   0.5000 0.1250 0.0000  plane waves:   37924
 k-point   9 :   0.5000 0.2500 0.0000  plane waves:   37926
 k-point  10 :  -0.3750 0.2500 0.0000  plane waves:   37916

 maximum and minimum number of plane-waves per node :     37928    37827

 maximum number of plane-waves:     37928
 maximum index in each direction: 
   IXMAX=   16   IYMAX=   16   IZMAX=   40
   IXMIN=  -16   IYMIN=  -16   IZMIN=  -40


 serial   3D FFT for wavefunctions
 parallel 3D FFT for charge:
    minimum data exchange during FFTs selected (reduces bandwidth)


 total amount of memory used by VASP MPI-rank0   122671. kBytes
=======================================================================

   base      :      30000. kBytes
   nonlr-proj:      14286. kBytes
   fftplans  :       4330. kBytes
   grid      :      17879. kBytes
   one-center:        575. kBytes
   wavefun   :      55601. kBytes
 
     INWAV:  cpu time    0.0000: real time    0.0000
 initial charge density was supplied:
 number of electron     397.0000028 magnetization 
 keeping initial charge density in first step


--------------------------------------------------------------------------------------------------------


 Maximum index for non-local projection operator         3042
 Maximum index for augmentation-charges          851 (set IRDMAX)


--------------------------------------------------------------------------------------------------------


 First call to EWALD:  gamma=   0.155
 Maximum number of real-space cells 4x 4x 2
 Maximum number of reciprocal cells 2x 2x 5

    FEWALD:  cpu time    0.0014: real time    0.0014


--------------------------------------- Iteration      1(   1)  ---------------------------------------


    POTLOK:  cpu time    0.0440: real time    0.0444
    SETDIJ:  cpu time    0.0049: real time    0.0049
     EDDAV:  cpu time    9.8766: real time    9.8784
 BZINTS: Fermi energy:    8.074168;  397.000000 electrons
         Band energy: 0.923490E+03;  BLOECHL correction:   -0.035942
       DOS:  cpu time    0.0105: real time    0.0105
    --------------------------------------------
      LOOP:  cpu time    9.9359: real time    9.9382

 eigenvalue-minimisations  :  7560
 total energy-change (2. order) : 0.2029087E+04  (-0.1873961E+05)
 number of electron     397.0000028 magnetization 
 augmentation part      397.0000028 magnetization 

 Free energy of the ion-electron system (eV)
  ---------------------------------------------------
  alpha Z        PSCENC =      1027.08462138
  Ewald energy   TEWEN  =     95600.07624404
  -Hartree energ DENC   =   -129775.91558539
  -exchange      EXHF   =         0.00000000
  -V(xc)+E(xc)   XCENC  =       490.62303996
  PAW double counting   =     36555.51376077   -35768.86294757
  entropy T*S    EENTRO =         0.00000000
  eigenvalues    EBANDS =       923.49048469
  atomic energy  EATOM  =     32977.07768088
  Solvation  Ediel_sol  =         0.00000000
  ---------------------------------------------------
  free energy    TOTEN  =      2029.08729876 eV

  energy without entropy =     2029.08729876  energy(sigma->0) =     2029.08729876


--------------------------------------------------------------------------------------------------------




--------------------------------------- Iteration      1(   2)  ---------------------------------------


     EDDAV:  cpu time    9.5137: real time    9.5143
 BZINTS: Fermi energy:    1.057028;  397.000000 electrons
         Band energy:-0.117998E+04;  BLOECHL correction:   -0.063205
       DOS:  cpu time    0.0095: real time    0.0095
    --------------------------------------------
      LOOP:  cpu time    9.5232: real time    9.5238

 eigenvalue-minimisations  :  7252
 total energy-change (2. order) :-0.2103471E+04  (-0.2043072E+04)
 number of electron     397.0000028 magnetization 
 augmentation part      397.0000028 magnetization 

 Free energy of the ion-electron system (eV)
  ---------------------------------------------------
  alpha Z        PSCENC =      1027.08462138
  Ewald energy   TEWEN  =     95600.07624404
  -Hartree energ DENC   =   -129775.91558539
  -exchange      EXHF   =         0.00000000
  -V(xc)+E(xc)   XCENC  =       490.62303996
  PAW double counting   =     36555.51376077   -35768.86294757
  entropy T*S    EENTRO =         0.00000000
  eigenvalues    EBANDS =     -1179.98027213
  atomic energy  EATOM  =     32977.07768088
  Solvation  Ediel_sol  =         0.00000000
  ---------------------------------------------------
  free energy    TOTEN  =       -74.38345807 eV

  energy without entropy =      -74.38345807  energy(sigma->0) =      -74.38345807


--------------------------------------------------------------------------------------------------------




--------------------------------------- Iteration      1(   3)  ---------------------------------------


     EDDAV:  cpu time    9.6849: real time    9.6856
 BZINTS: Fermi energy:    0.689112;  397.000000 electrons
         Band energy:-0.122941E+04;  BLOECHL correction:   -0.053402
       DOS:  cpu time    0.0102: real time    0.0102
    --------------------------------------------
      LOOP:  cpu time    9.6951: real time    9.6958

 eigenvalue-minimisations  :  7392
 total energy-change (2. order) :-0.4942806E+02  (-0.4816149E+02)
 number of electron     397.0000028 magnetization 
 augmentation part      397.0000028 magnetization 

 Free energy of the ion-electron system (eV)
  ---------------------------------------------------
  alpha Z        PSCENC =      1027.08462138
  Ewald energy   TEWEN  =     95600.07624404
  -Hartree energ DENC   =   -129775.91558539
  -exchange      EXHF   =         0.00000000
  -V(xc)+E(xc)   XCENC  =       490.62303996
  PAW double counting   =     36555.51376077   -35768.86294757
  entropy T*S    EENTRO =         0.00000000
  eigenvalues    EBANDS =     -1229.40833303
  atomic energy  EATOM  =     32977.07768088
  Solvation  Ediel_sol  =         0.00000000
  ---------------------------------------------------
  free energy    TOTEN  =      -123.81151897 eV

  energy without entropy =     -123.81151897  energy(sigma->0) =     -123.81151897


--------------------------------------------------------------------------------------------------------




--------------------------------------- Iteration      1(   4)  ---------------------------------------


     EDDAV:  cpu time    8.4818: real time    8.4823
 BZINTS: Fermi energy:    0.678324;  397.000000 electrons
         Band energy:-0.123031E+04;  BLOECHL correction:   -0.053368
       DOS:  cpu time    0.0100: real time    0.0100
    --------------------------------------------
      LOOP:  cpu time    8.4917: real time    8.4923

 eigenvalue-minimisations  :  6300
 total energy-change (2. order) :-0.9041111E+00  (-0.9009880E+00)
 number of electron     397.0000028 magnetization 
 augmentation part      397.0000028 magnetization 

 Free energy of the ion-electron system (eV)
  ---------------------------------------------------
  alpha Z        PSCENC =      1027.08462138
  Ewald energy   TEWEN  =     95600.07624404
  -Hartree energ DENC   =   -129775.91558539
  -exchange      EXHF   =         0.00000000
  -V(xc)+E(xc)   XCENC  =       490.62303996
  PAW double counting   =     36555.51376077   -35768.86294757
  entropy T*S    EENTRO =         0.00000000
  eigenvalues    EBANDS =     -1230.31244417
  atomic energy  EATOM  =     32977.07768088
  Solvation  Ediel_sol  =         0.00000000
  ---------------------------------------------------
  free energy    TOTEN  =      -124.71563011 eV

  energy without entropy =     -124.71563011  energy(sigma->0) =     -124.71563011


--------------------------------------------------------------------------------------------------------




--------------------------------------- Iteration      1(   5)  ---------------------------------------


     EDDAV:  cpu time    8.8879: real time    8.8883
 BZINTS: Fermi energy:    0.678053;  397.000000 electrons
         Band energy:-0.123036E+04;  BLOECHL correction:   -0.053358
       DOS:  cpu time    0.0102: real time    0.0102
    --------------------------------------------
      LOOP:  cpu time    8.8981: real time    8.8985

 eigenvalue-minimisations  :  6636
 total energy-change (2. order) :-0.4586524E-01  (-0.4585895E-01)
 number of electron     397.0000028 magnetization 
 augmentation part      397.0000028 magnetization 

 Free energy of the ion-electron system (eV)
  ---------------------------------------------------
  alpha Z        PSCENC =      1027.08462138
  Ewald energy   TEWEN  =     95600.07624404
  -Hartree energ DENC   =   -129775.91558539
  -exchange      EXHF   =         0.00000000
  -V(xc)+E(xc)   XCENC  =       490.62303996
  PAW double counting   =     36555.51376077   -35768.86294757
  entropy T*S    EENTRO =         0.00000000
  eigenvalues    EBANDS =     -1230.35830942
  atomic energy  EATOM  =     32977.07768088
  Solvation  Ediel_sol  =         0.00000000
  ---------------------------------------------------
  free energy    TOTEN  =      -124.76149535 eV

  energy without entropy =     -124.76149535  energy(sigma->0) =     -124.76149535


--------------------------------------------------------------------------------------------------------




--------------------------------------- Iteration      1(   6)  ---------------------------------------


    EDDIAG:  cpu time    1.4017: real time    1.4020
  RMM-DIIS:  cpu time    5.3067: real time    5.3070
    ORTHCH:  cpu time    0.2600: real time    0.2600
 BZINTS: Fermi energy:    0.678044;  397.000000 electrons
         Band energy:-0.123036E+04;  BLOECHL correction:   -0.053348
       DOS:  cpu time    0.0099: real time    0.0099
    --------------------------------------------
      LOOP:  cpu time    6.9783: real time    6.9788

 eigenvalue-minimisations  :  6767
 total energy-change (2. order) :-0.1624340E-02  (-0.1632728E-02)
 number of electron     397.0000028 magnetization 
 augmentation part      397.0000028 magnetization 

 Free energy of the ion-electron system (eV)
  ---------------------------------------------------
  alpha Z        PSCENC =      1027.08462138
  Ewald energy   TEWEN  =     95600.07624404
  -Hartree energ DENC   =   -129775.91558539
  -exchange      EXHF   =         0.00000000
  -V(xc)+E(xc)   XCENC  =       490.62303996
  PAW double counting   =     36555.51376077   -35768.86294757
  entropy T*S    EENTRO =         0.00000000
  eigenvalues    EBANDS =     -1230.35993376
  atomic energy  EATOM  =     32977.07768088
  Solvation  Ediel_sol  =         0.00000000
  ---------------------------------------------------
  free energy    TOTEN  =      -124.76311969 eV

  energy without entropy =     -124.76311969  energy(sigma->0) =     -124.76311969


--------------------------------------------------------------------------------------------------------




--------------------------------------- Iteration      1(   7)  ---------------------------------------


    EDDIAG:  cpu time    1.4026: real time    1.4027
  RMM-DIIS:  cpu time    6.0016: real time    6.0019
    ORTHCH:  cpu time    0.2601: real time    0.2601
 BZINTS: Fermi energy:    0.678041;  397.000000 electrons
         Band energy:-0.123036E+04;  BLOECHL correction:   -0.053346
       DOS:  cpu time    0.0104: real time    0.0104
    --------------------------------------------
      LOOP:  cpu time    7.6746: real time    7.6751

 eigenvalue-minimisations  :  7767
 total energy-change (2. order) :-0.5866552E-03  (-0.5848804E-03)
 number of electron     397.0000028 magnetization 
 augmentation part      397.0000028 magnetization 

 Free energy of the ion-electron system (eV)
  ---------------------------------------------------
  alpha Z        PSCENC =      1027.08462138
  Ewald energy   TEWEN  =     95600.07624404
  -Hartree energ DENC   =   -129775.91558539
  -exchange      EXHF   =         0.00000000
  -V(xc)+E(xc)   XCENC  =       490.62303996
  PAW double counting   =     36555.51376077   -35768.86294757
  entropy T*S    EENTRO =         0.00000000
  eigenvalues    EBANDS =     -1230.36052041
  atomic energy  EATOM  =     32977.07768088
  Solvation  Ediel_sol  =         0.00000000
  ---------------------------------------------------
  free energy    TOTEN  =      -124.76370635 eV

  energy without entropy =     -124.76370635  energy(sigma->0) =     -124.76370635


--------------------------------------------------------------------------------------------------------




--------------------------------------- Iteration      1(   8)  ---------------------------------------


    EDDIAG:  cpu time    1.4046: real time    1.4048
  RMM-DIIS:  cpu time    6.2108: real time    6.2111
    ORTHCH:  cpu time    0.2602: real time    0.2602
 BZINTS: Fermi energy:    0.678041;  397.000000 electrons
         Band energy:-0.123036E+04;  BLOECHL correction:   -0.053345
       DOS:  cpu time    0.0097: real time    0.0097
    --------------------------------------------
      LOOP:  cpu time    7.8852: real time    7.8858

 eigenvalue-minimisations  :  7769
 total energy-change (2. order) :-0.1225575E-03  (-0.1222374E-03)
 number of electron     397.0000028 magnetization 
 augmentation part      397.0000028 magnetization 

 Free energy of the ion-electron system (eV)
  ---------------------------------------------------
  alpha Z        PSCENC =      1027.08462138
  Ewald energy   TEWEN  =     95600.07624404
  -Hartree energ DENC   =   -129775.91558539
  -exchange      EXHF   =         0.00000000
  -V(xc)+E(xc)   XCENC  =       490.62303996
  PAW double counting   =     36555.51376077   -35768.86294757
  entropy T*S    EENTRO =         0.00000000
  eigenvalues    EBANDS =     -1230.36064297
  atomic energy  EATOM  =     32977.07768088
  Solvation  Ediel_sol  =         0.00000000
  ---------------------------------------------------
  free energy    TOTEN  =      -124.76382890 eV

  energy without entropy =     -124.76382890  energy(sigma->0) =     -124.76382890


--------------------------------------------------------------------------------------------------------




--------------------------------------- Iteration      1(   9)  ---------------------------------------


    EDDIAG:  cpu time    1.4028: real time    1.4029
  RMM-DIIS:  cpu time    4.6898: real time    4.6900
    ORTHCH:  cpu time    0.2607: real time    0.2607
 BZINTS: Fermi energy:    0.678041;  397.000000 electrons
         Band energy:-0.123036E+04;  BLOECHL correction:   -0.053345
       DOS:  cpu time    0.0102: real time    0.0102
    --------------------------------------------
      LOOP:  cpu time    6.3634: real time    6.3638

 eigenvalue-minimisations  :  5571
 total energy-change (2. order) :-0.4204860E-04  (-0.4181623E-04)
 number of electron     397.0000028 magnetization 
 augmentation part      397.0000028 magnetization 

 Free energy of the ion-electron system (eV)
  ---------------------------------------------------
  alpha Z        PSCENC =      1027.08462138
  Ewald energy   TEWEN  =     95600.07624404
  -Hartree energ DENC   =   -129775.91558539
  -exchange      EXHF   =         0.00000000
  -V(xc)+E(xc)   XCENC  =       490.62303996
  PAW double counting   =     36555.51376077   -35768.86294757
  entropy T*S    EENTRO =         0.00000000
  eigenvalues    EBANDS =     -1230.36068502
  atomic energy  EATOM  =     32977.07768088
  Solvation  Ediel_sol  =         0.00000000
  ---------------------------------------------------
  free energy    TOTEN  =      -124.76387095 eV

  energy without entropy =     -124.76387095  energy(sigma->0) =     -124.76387095


--------------------------------------------------------------------------------------------------------




--------------------------------------- Iteration      1(  10)  ---------------------------------------


    EDDIAG:  cpu time    1.4025: real time    1.4027
  RMM-DIIS:  cpu time    3.9075: real time    3.9077
    ORTHCH:  cpu time    0.2606: real time    0.2606
 BZINTS: Fermi energy:    0.678041;  397.000000 electrons
         Band energy:-0.123036E+04;  BLOECHL correction:   -0.053345
       DOS:  cpu time    0.0100: real time    0.0099
    --------------------------------------------
      LOOP:  cpu time    5.5805: real time    5.5809

 eigenvalue-minimisations  :  4314
 total energy-change (2. order) :-0.5145514E-05  (-0.5073107E-05)
 number of electron     397.0000028 magnetization 
 augmentation part      397.0000028 magnetization 

 Free energy of the ion-electron system (eV)
  ---------------------------------------------------
  alpha Z        PSCENC =      1027.08462138
  Ewald energy   TEWEN  =     95600.07624404
  -Hartree energ DENC   =   -129775.91558539
  -exchange      EXHF   =         0.00000000
  -V(xc)+E(xc)   XCENC  =       490.62303996
  PAW double counting   =     36555.51376077   -35768.86294757
  entropy T*S    EENTRO =         0.00000000
  eigenvalues    EBANDS =     -1230.36069016
  atomic energy  EATOM  =     32977.07768088
  Solvation  Ediel_sol  =         0.00000000
  ---------------------------------------------------
  free energy    TOTEN  =      -124.76387610 eV

  energy without entropy =     -124.76387610  energy(sigma->0) =     -124.76387610


--------------------------------------------------------------------------------------------------------




 average (electrostatic) potential at core
  the test charge radii are     1.2098  1.1873  0.7089
  (the norm of the test charge is              1.0000)
       1 -72.3487       2 -72.3395       3 -72.3394       4 -72.3395       5 -72.3432
       6 -72.3392       7 -72.3394       8 -72.3392       9 -72.3396      10 -72.6884
      11 -72.6707      12 -72.6884      13 -72.6707      14 -72.6706      15 -72.6734
      16 -72.6884      17 -72.6734      18 -72.6736      19 -72.6030      20 -72.9534
      21 -72.9536      22 -72.6528      23 -72.9536      24 -72.6529      25 -72.6032
      26 -72.6030      27 -72.6528      28 -72.2755      29 -72.3821      30 -72.3822
      31 -72.3821      32 -72.3821      33 -72.3822      34 -72.3821      35 -72.2355
      36 -47.0449      37 -68.6485
 
 
 
 E-fermi :   0.6780     XC(G=0):  -6.1382     alpha+bet : -5.7690

 Fermi energy:         0.6780406478

 k-point     1 :       0.0000    0.0000    0.0000
  band No.  band energies     occupation 
      1     -13.1624      2.00000
      2      -8.1493      2.00000
      3      -6.9880      2.00000
      4      -6.0765      2.00000
      5      -6.0449      2.00000
      6      -6.0449      2.00000
      7      -6.0245      2.00000
      8      -5.9942      2.00000
      9      -5.9453      2.00000
     10      -5.9298      2.00000
     11      -5.9298      2.00000
     12      -5.5493      2.00000
     13      -5.5493      2.00000
     14      -5.5461      2.00000
     15      -5.5206      2.00000
     16      -5.4507      2.00000
     17      -5.4507      2.00000
     18      -5.1688      2.00000
     19      -5.1680      2.00000
     20      -5.1680      2.00000
     21      -5.1260      2.00000
     22      -5.0863      2.00000
     23      -5.0863      2.00000
     24      -5.0231      2.00000
     25      -4.9736      2.00000
     26      -4.9736      2.00000
     27      -4.9520      2.00000
     28      -4.9520      2.00000
     29      -4.9164      2.00000
     30      -4.8057      2.00000
     31      -4.8057      2.00000
     32      -4.7857      2.00000
     33      -4.7857      2.00000
     34      -4.7823      2.00000
     35      -4.7750      2.00000
     36      -4.7562      2.00000
     37      -4.7562      2.00000
     38      -4.7349      2.00000
     39      -4.7303      2.00000
     40      -4.7016      2.00000
     41      -4.7016      2.00000
     42      -4.4012      2.00000
     43      -4.4012      2.00000
     44      -4.2976      2.00000
     45      -4.2569      2.00000
     46      -4.2569      2.00000
     47      -4.1992      2.00000
     48      -4.1950      2.00000
     49      -4.1949      2.00000
     50      -4.1727      2.00000
     51      -4.1727      2.00000
     52      -4.1187      2.00000
     53      -4.0945      2.00000
     54      -4.0932      2.00000
     55      -4.0144      2.00000
     56      -3.9094      2.00000
     57      -3.9094      2.00000
     58      -3.7439      2.00000
     59      -3.7000      2.00000
     60      -3.7000      2.00000
     61      -3.6961      2.00000
     62      -3.6792      2.00000
     63      -3.6345      2.00000
     64      -3.6345      2.00000
     65      -3.6166      2.00000
     66      -3.6166      2.00000
     67      -3.5537      2.00000
     68      -3.5537      2.00000
     69      -3.5404      2.00000
     70      -3.5046      2.00000
     71      -3.5046      2.00000
     72      -3.4710      2.00000
     73      -3.4663      2.00000
     74      -3.4663      2.00000
     75      -3.4344      2.00000
     76      -3.4115      2.00000
     77      -3.4115      2.00000
     78      -3.4106      2.00000
     79      -3.4106      2.00000
     80      -3.4086      2.00000
     81      -3.4062      2.00000
     82      -3.3948      2.00000
     83      -3.3948      2.00000
     84      -3.3467      2.00000
     85      -3.3345      2.00000
     86      -3.3344      2.00000
     87      -3.3198      2.00000
     88      -3.3198      2.00000
     89      -3.2490      2.00000
     90      -3.2489      2.00000
     91      -3.2115      2.00000
     92      -3.1780      2.00000
     93      -3.1780      2.00000
     94      -3.1108      2.00000
     95      -3.1108      2.00000
     96      -2.9814      2.00000
     97      -2.9814      2.00000
     98      -2.9761      2.00000
     99      -2.9760      2.00000
    100      -2.9033      2.00000
    101      -2.8385      2.00000
    102      -2.8385      2.00000
    103      -2.8212      2.00000
    104      -2.8100      2.00000
    105      -2.8100      2.00000
    106      -2.6881      2.00000
    107      -2.6881      2.00000
    108      -2.6696      2.00000
    109      -2.6487      2.00000
    110      -2.6487      2.00000
    111      -2.6395      2.00000
    112      -2.5783      2.00000
    113      -2.5782      2.00000
    114      -2.5240      2.00000
    115      -2.5076      2.00000
    116      -2.5031      2.00000
    117      -2.4583      2.00000
    118      -2.4583      2.00000
    119      -2.3534      2.00000
    120      -2.3183      2.00000
    121      -2.3101      2.00000
    122      -2.3101      2.00000
    123      -2.2677      2.00000
    124      -2.2677      2.00000
    125      -2.2316      2.00000
    126      -2.2316      2.00000
    127      -2.2128      2.00000
    128      -2.2128      2.00000
    129      -2.1722      2.00000
    130      -2.1722      2.00000
    131      -2.1205      2.00000
    132      -2.0879      2.00000
    133      -2.0603      2.00000
    134      -2.0603      2.00000
    135      -2.0340      2.00000
    136      -2.0340      2.00000
    137      -2.0302      2.00000
    138      -2.0227      2.00000
    139      -2.0226      2.00000
    140      -2.0066      2.00000
    141      -1.9386      2.00000
    142      -1.9386      2.00000
    143      -1.9086      2.00000
    144      -1.8507      2.00000
    145      -1.8507      2.00000
    146      -1.8199      2.00000
    147      -1.8116      2.00000
    148      -1.8116      2.00000
    149      -1.7890      2.00000
    150      -1.7736      2.00000
    151      -1.7735      2.00000
    152      -1.7336      2.00000
    153      -1.7229      2.00000
    154      -1.7219      2.00000
    155      -1.7219      2.00000
    156      -1.6901      2.00000
    157      -1.6900      2.00000
    158      -1.6675      2.00000
    159      -1.6291      2.00000
    160      -1.6291      2.00000
    161      -1.6211      2.00000
    162      -1.6050      2.00000
    163      -1.5613      2.00000
    164      -1.5613      2.00000
    165      -1.5510      2.00000
    166      -1.5510      2.00000
    167      -1.5466      2.00000
    168      -1.5305      2.00000
    169      -1.5304      2.00000
    170      -1.5078      2.00000
    171      -1.4854      2.00000
    172      -1.4854      2.00000
    173      -1.4808      2.00000
    174      -1.4770      2.00000
    175      -1.4588      2.00000
    176      -1.4485      2.00000
    177      -1.4485      2.00000
    178      -1.4220      2.00000
    179      -1.4134      2.00000
    180      -1.4106      2.00000
    181      -1.4106      2.00000
    182      -1.3868      2.00000
    183      -1.3868      2.00000
    184      -1.3569      2.00000
    185      -1.3527      2.00000
    186      -1.3527      2.00000
    187      -1.2235      2.00000
    188      -1.2234      2.00000
    189      -1.2032      2.00000
    190      -1.1743      2.00000
    191      -1.1742      2.00000
    192      -1.1467      2.00000
    193      -1.1421      2.00000
    194      -1.1421      2.00000
    195      -0.3008      2.00000
    196      -0.0229      2.00000
    197       0.0542      2.00000
    198       0.0542      2.00000
    199       0.1188      2.00000
    200       0.2095      2.00000
    201       0.2095      2.00000
    202       0.5810      2.20211
    203       0.5810      1.88183
    204       1.1304      0.00000
    205       1.9833      0.00000
    206       2.1045      0.00000
    207       2.1045      0.00000
    208       2.2053      0.00000
    209       2.2726      0.00000
    210       2.2727      0.00000
    211       2.6640      0.00000
    212       2.6640      0.00000
    213       3.4913      0.00000
    214       3.4913      0.00000
    215       3.4991      0.00000
    216       3.6342      0.00000
    217       3.8031      0.00000
    218       3.8031      0.00000
    219       4.0654      0.00000
    220       4.2152      0.00000
    221       4.9454      0.00000
    222       5.3237      0.00000
    223       5.3258      0.00000
    224       5.3258      0.00000
    225       5.3780      0.00000
    226       5.3780      0.00000
    227       5.4847      0.00000
    228       5.5970      0.00000
    229       5.5970      0.00000
    230       5.6720      0.00000
    231       5.6720      0.00000
    232       5.7832      0.00000
    233       5.8730      0.00000
    234       6.1047      0.00000
    235       6.9570      0.00000
    236       6.9976      0.00000
    237       6.9988      0.00000
    238       7.0020      0.00000
    239       7.0678      0.00000
    240       7.0804      0.00000
    241       7.0868      0.00000
    242       7.1844      0.00000
    243       7.1989      0.00000
    244       7.2015      0.00000
    245       7.2411      0.00000
    246       7.2541      0.00000
    247       7.3058      0.00000
    248       7.4602      0.00000
    249       7.4654      0.00000
    250       7.4778      0.00000
    251       7.6108      0.00000
    252       7.7379      0.00000

 k-point     2 :       0.1250   -0.0000    0.0000
  band No.  band energies     occupation 
      1     -13.1623      2.00000
      2      -8.0987      2.00000
      3      -6.9390      2.00000
      4      -6.2604      2.00000
      5      -6.0794      2.00000
      6      -6.0784      2.00000
      7      -5.9817      2.00000
      8      -5.9486      2.00000
      9      -5.8957      2.00000
     10      -5.8582      2.00000
     11      -5.8466      2.00000
     12      -5.5767      2.00000
     13      -5.5495      2.00000
     14      -5.5269      2.00000
     15      -5.5017      2.00000
     16      -5.4565      2.00000
     17      -5.4269      2.00000
     18      -5.2062      2.00000
     19      -5.1596      2.00000
     20      -5.1592      2.00000
     21      -5.1195      2.00000
     22      -5.0717      2.00000
     23      -5.0659      2.00000
     24      -5.0456      2.00000
     25      -4.9981      2.00000
     26      -4.9849      2.00000
     27      -4.9251      2.00000
     28      -4.9167      2.00000
     29      -4.8776      2.00000
     30      -4.8506      2.00000
     31      -4.8481      2.00000
     32      -4.8268      2.00000
     33      -4.8125      2.00000
     34      -4.7990      2.00000
     35      -4.7776      2.00000
     36      -4.7540      2.00000
     37      -4.6986      2.00000
     38      -4.6911      2.00000
     39      -4.6670      2.00000
     40      -4.6290      2.00000
     41      -4.6261      2.00000
     42      -4.4405      2.00000
     43      -4.4157      2.00000
     44      -4.3328      2.00000
     45      -4.3163      2.00000
     46      -4.2948      2.00000
     47      -4.2663      2.00000
     48      -4.2206      2.00000
     49      -4.1747      2.00000
     50      -4.1656      2.00000
     51      -4.1343      2.00000
     52      -4.0989      2.00000
     53      -4.0747      2.00000
     54      -4.0460      2.00000
     55      -4.0120      2.00000
     56      -3.9216      2.00000
     57      -3.9119      2.00000
     58      -3.7668      2.00000
     59      -3.7350      2.00000
     60      -3.7170      2.00000
     61      -3.7072      2.00000
     62      -3.6943      2.00000
     63      -3.6799      2.00000
     64      -3.6622      2.00000
     65      -3.6593      2.00000
     66      -3.6428      2.00000
     67      -3.6070      2.00000
     68      -3.6032      2.00000
     69      -3.5875      2.00000
     70      -3.5602      2.00000
     71      -3.5362      2.00000
     72      -3.5332      2.00000
     73      -3.5111      2.00000
     74      -3.5110      2.00000
     75      -3.4820      2.00000
     76      -3.4736      2.00000
     77      -3.4532      2.00000
     78      -3.4332      2.00000
     79      -3.4247      2.00000
     80      -3.3929      2.00000
     81      -3.3824      2.00000
     82      -3.3581      2.00000
     83      -3.3540      2.00000
     84      -3.3239      2.00000
     85      -3.3037      2.00000
     86      -3.2987      2.00000
     87      -3.2735      2.00000
     88      -3.2339      2.00000
     89      -3.2325      2.00000
     90      -3.1975      2.00000
     91      -3.1867      2.00000
     92      -3.1498      2.00000
     93      -3.1496      2.00000
     94      -3.0995      2.00000
     95      -3.0979      2.00000
     96      -3.0724      2.00000
     97      -3.0656      2.00000
     98      -2.9774      2.00000
     99      -2.9446      2.00000
    100      -2.9297      2.00000
    101      -2.8622      2.00000
    102      -2.8423      2.00000
    103      -2.8340      2.00000
    104      -2.8123      2.00000
    105      -2.8093      2.00000
    106      -2.7849      2.00000
[...]
  0.000   0.000   0.000   0.000   0.000   0.000   0.000   0.000   0.000   0.000   0.000   0.000   0.000   0.000   0.000   0.000
  0.000   0.000   0.000   0.000   0.000   0.000   0.000   0.000   0.000   0.000   0.000   0.000   0.000   0.000   0.000   0.000
  0.000   0.000   0.000   0.000   0.000   0.000   0.000   0.000   0.000   0.000   0.000   0.000   0.000   0.000   0.000   0.000
  0.000   0.000   0.000   0.000   0.000   0.000   0.000   0.000   0.000   0.000   0.000   0.000   0.000   0.000   0.000   0.000
  0.000   0.000   0.000   0.000   0.000   0.000   0.000   0.000   0.000   0.000   0.000   0.000   0.000   0.000   0.000   0.000
  0.000   0.000   0.000   0.000   0.000   0.000   0.000   0.000   0.000   0.000   1.000   0.000   0.000   0.000   0.000   0.000
  0.000   0.000   0.000   0.000   0.000   0.000   0.000   0.000   0.000   0.000   0.000   0.000   0.000   0.000   0.000   0.000
  0.000   0.000   0.000   0.000   0.000   0.000   0.000   0.000   0.000   0.000   0.000   0.000   0.000   0.000   0.000   0.000
  0.000   0.000   0.000   0.000   0.000   0.000   0.000   0.000   0.000   0.000   0.000   0.000   0.000   0.000   0.000   0.000
  0.000   0.000   0.000   0.000   0.000   0.000   0.000   0.000   0.000   0.000   0.000   0.000   0.000   0.000   0.000   0.000
  0.000   0.000   0.000   0.000   0.000   0.000   0.000   0.000   0.000   0.000   0.000   0.000   0.000   0.000   0.000   0.000
  0.000   0.000   0.000   0.000   0.000   0.000   0.000   0.000   0.000   0.000   0.000   0.000   0.000   0.000   0.000   0.000
  0.000   0.000   0.000   0.000   0.000   0.000   0.000   0.000   0.000   0.000   0.000   0.000   0.000   0.000   0.000   0.000


------------------------ aborting loop because EDIFF is reached ----------------------------------------





 total charge

# of ion       s       p       d       tot
------------------------------------------
    1        0.548   0.239   8.767   9.554
    2        0.543   0.241   8.765   9.549
    3        0.543   0.241   8.765   9.549
    4        0.543   0.241   8.765   9.549
    5        0.543   0.241   8.764   9.548
    6        0.543   0.241   8.765   9.549
    7        0.543   0.241   8.765   9.549
    8        0.543   0.241   8.765   9.549
    9        0.543   0.241   8.766   9.550
   10        0.520   0.307   8.771   9.598
   11        0.517   0.311   8.776   9.605
   12        0.520   0.307   8.771   9.598
   13        0.517   0.311   8.776   9.605
   14        0.517   0.311   8.776   9.605
   15        0.514   0.309   8.773   9.596
   16        0.520   0.307   8.771   9.598
   17        0.514   0.309   8.773   9.596
   18        0.514   0.309   8.773   9.596
   19        0.517   0.293   8.776   9.587
   20        0.557   0.339   8.746   9.642
   21        0.557   0.339   8.746   9.642
   22        0.509   0.309   8.773   9.591
   23        0.557   0.339   8.746   9.642
   24        0.509   0.309   8.773   9.591
   25        0.517   0.293   8.776   9.587
   26        0.517   0.293   8.776   9.587
   27        0.509   0.309   8.773   9.591
   28        0.545   0.224   8.759   9.528
   29        0.551   0.248   8.758   9.557
   30        0.551   0.248   8.758   9.557
   31        0.551   0.248   8.758   9.557
   32        0.551   0.248   8.758   9.557
   33        0.551   0.248   8.758   9.557
   34        0.551   0.248   8.758   9.557
   35        0.537   0.225   8.763   9.525
   36        0.601   0.580   4.957   6.138
   37        1.350   2.217   0.000   3.567
--------------------------------------------------
tot         20.635  12.507 311.757 344.899
 
    CHARGE:  cpu time    0.3284: real time    0.3286
    FORLOC:  cpu time    0.0100: real time    0.0100
    FORNL :  cpu time    1.4451: real time    1.4454
    STRESS:  cpu time    4.3293: real time    4.3296
    FORCOR:  cpu time    0.0426: real time    0.0428
    FORHAR:  cpu time    0.0172: real time    0.0172
    OFIELD:  cpu time    0.0002: real time    0.0002

  FORCE on cell =-STRESS in cart. coord.  units (eV):
  Direction    XX          YY          ZZ          XY          YZ          ZX
  --------------------------------------------------------------------------------------
  Alpha Z  1027.08462  1027.08462  1027.08462
  Ewald  118180.73622118180.73664************    -0.00032    -0.00009    -0.00014
  Hartree126813.68419126813.68420************     0.00001    -0.00002    -0.00004
  E(xc)   -1780.44788 -1780.44787 -1788.64562    -0.00001     0.00000     0.00000
  Local  ************************257453.27512     0.00189     0.00003     0.00003
  n-local  -106.36090   -57.52291   -54.82561    24.36724    -1.61704     1.45447
  augment  2375.55864  2375.56010  2390.47514    -0.00127     0.00001     0.00006
  Kinetic  5536.02285  5546.48778  5575.44727     6.16331     0.15260     0.26893
  Fock        0.00000     0.00000     0.00000     0.00000     0.00000     0.00000
  -------------------------------------------------------------------------------------
  Total     -18.71814   -18.71814     2.31933    -0.00000     0.00000     0.00000
  in kB     -20.08473   -20.08473     2.48866    -0.00000     0.00000     0.00000
  external pressure =      -12.56 kB  Pullay stress =        0.00 kB


 VOLUME and BASIS-vectors are now :
 -----------------------------------------------------------------------------
  energy-cutoff  :      500.00
  volume of cell :     1493.16
      direct lattice vectors                 reciprocal lattice vectors
     8.813512802  0.000000000  0.000000000     0.113462137 -0.065507406  0.000000000
     4.406756909  7.632725690  0.000000000     0.000000000  0.131014796  0.000000000
     0.000000000  0.000000000 22.196203232     0.000000000  0.000000000  0.045052750

  length of vectors
     8.813512802  8.813512802 22.196203232     0.131014796  0.131014796  0.045052750


 FORCES acting on ions
    electron-ion (+dipol)            ewald-force                    non-local-force                 convergence-correction
 -----------------------------------------------------------------------------------------------
   -.196E-04 -.162E-04 0.248E+04   0.520E-04 0.434E-04 -.248E+04   -.786E-17 -.744E-19 -.582E+00   -.160E-03 -.106E-03 -.186E+00
   0.735E+00 0.307E+00 0.248E+04   -.809E+00 -.342E+00 -.248E+04   -.844E-02 0.329E-01 -.358E+00   0.821E-01 0.369E-02 -.250E+00
   -.735E+00 0.307E+00 0.248E+04   0.809E+00 -.342E+00 -.248E+04   0.844E-02 0.329E-01 -.358E+00   -.818E-01 0.556E-02 -.249E+00
   0.633E+00 0.484E+00 0.248E+04   -.701E+00 -.529E+00 -.248E+04   0.243E-01 -.238E-01 -.358E+00   0.443E-01 0.692E-01 -.250E+00
   0.870E-05 -.232E-04 0.248E+04   0.951E-04 0.175E-05 -.248E+04   0.228E-17 -.319E-17 -.323E+00   0.418E-02 0.255E-02 -.243E+00
   -.633E+00 0.484E+00 0.248E+04   0.701E+00 -.529E+00 -.248E+04   -.243E-01 -.238E-01 -.358E+00   -.457E-01 0.701E-01 -.249E+00
   -.102E+00 -.790E+00 0.248E+04   0.108E+00 0.872E+00 -.248E+04   0.327E-01 -.915E-02 -.358E+00   -.360E-01 -.737E-01 -.249E+00
   0.102E+00 -.790E+00 0.248E+04   -.108E+00 0.872E+00 -.248E+04   -.327E-01 -.915E-02 -.358E+00   0.379E-01 -.747E-01 -.249E+00
   0.196E-04 -.416E-04 0.248E+04   0.166E-03 -.201E-04 -.248E+04   0.796E-18 0.138E-19 -.450E+00   -.457E-02 -.236E-02 -.184E+00
   0.790E+01 0.456E+01 0.824E+03   -.772E+01 -.446E+01 -.824E+03   -.270E+00 -.156E+00 -.439E+00   0.397E-01 0.228E-01 0.131E+00
   0.143E-04 0.453E+01 0.833E+03   0.148E-03 -.466E+01 -.832E+03   0.252E-08 0.378E-01 -.386E+00   0.354E-02 0.200E-01 0.114E+00
   -.790E+01 0.456E+01 0.824E+03   0.772E+01 -.446E+01 -.824E+03   0.270E+00 -.156E+00 -.439E+00   -.405E-01 0.235E-01 0.130E+00
   0.392E+01 -.227E+01 0.833E+03   -.403E+01 0.233E+01 -.832E+03   0.327E-01 -.189E-01 -.386E+00   0.194E-01 -.665E-02 0.114E+00
   -.392E+01 -.227E+01 0.833E+03   0.403E+01 0.233E+01 -.832E+03   -.327E-01 -.189E-01 -.386E+00   -.123E-01 -.727E-02 0.112E+00
   0.310E-04 0.514E+01 0.829E+03   0.236E-03 -.528E+01 -.828E+03   0.119E-08 0.179E-01 -.387E+00   -.170E-02 0.616E-01 0.105E+00
   -.214E-04 -.913E+01 0.824E+03   0.163E-03 0.891E+01 -.824E+03   0.208E-07 0.312E+00 -.439E+00   -.176E-03 -.468E-01 0.130E+00
   0.445E+01 -.257E+01 0.829E+03   -.457E+01 0.264E+01 -.828E+03   0.155E-01 -.895E-02 -.387E+00   0.527E-01 -.318E-01 0.105E+00
   -.445E+01 -.257E+01 0.829E+03   0.457E+01 0.264E+01 -.828E+03   -.155E-01 -.895E-02 -.387E+00   -.525E-01 -.306E-01 0.105E+00
   -.431E-04 0.390E+01 -.859E+03   0.544E-04 -.405E+01 0.859E+03   -.261E-08 -.392E-01 0.643E+00   0.509E-02 0.129E+00 0.283E+00
   0.889E+01 0.513E+01 -.811E+03   -.838E+01 -.484E+01 0.811E+03   -.893E+00 -.515E+00 -.594E+00   0.162E+00 0.933E-01 0.457E+00
   -.889E+01 0.513E+01 -.811E+03   0.838E+01 -.484E+01 0.811E+03   0.893E+00 -.515E+00 -.594E+00   -.169E+00 0.938E-01 0.456E+00
   -.571E+01 0.330E+01 -.838E+03   0.521E+01 -.301E+01 0.837E+03   0.497E+00 -.287E+00 0.759E+00   0.643E-01 -.383E-01 0.301E+00
   -.105E-04 -.103E+02 -.811E+03   0.140E-03 0.968E+01 0.811E+03   0.686E-07 0.103E+01 -.594E+00   -.369E-02 -.194E+00 0.456E+00
   0.571E+01 0.330E+01 -.838E+03   -.521E+01 -.301E+01 0.837E+03   -.497E+00 -.287E+00 0.759E+00   -.632E-01 -.364E-01 0.301E+00
   -.337E+01 -.195E+01 -.859E+03   0.351E+01 0.202E+01 0.859E+03   0.339E-01 0.196E-01 0.643E+00   -.108E+00 -.622E-01 0.282E+00
   0.337E+01 -.195E+01 -.859E+03   -.351E+01 0.202E+01 0.859E+03   -.339E-01 0.196E-01 0.643E+00   0.115E+00 -.602E-01 0.283E+00
   0.111E-04 -.659E+01 -.838E+03   0.198E-03 0.602E+01 0.837E+03   0.382E-07 0.573E+00 0.759E+00   -.154E-02 0.748E-01 0.301E+00
   -.136E-04 -.127E-04 -.244E+04   0.298E-04 0.335E-04 0.244E+04   0.488E-17 0.431E-17 0.534E+00   0.157E-02 0.889E-03 0.354E+00
   0.277E+02 0.470E+02 -.244E+04   -.272E+02 -.467E+02 0.244E+04   -.797E+00 -.105E+01 0.570E+00   0.135E+00 0.191E+00 0.272E+00
   -.277E+02 0.470E+02 -.244E+04   0.272E+02 -.467E+02 0.244E+04   0.797E+00 -.105E+01 0.570E+00   -.142E+00 0.193E+00 0.273E+00
   0.546E+02 0.429E+00 -.244E+04   -.540E+02 -.260E+00 0.244E+04   -.131E+01 -.166E+00 0.570E+00   0.233E+00 0.212E-01 0.272E+00
   -.546E+02 0.429E+00 -.244E+04   0.540E+02 -.260E+00 0.244E+04   0.131E+01 -.166E+00 0.570E+00   -.240E+00 0.224E-01 0.274E+00
   0.269E+02 -.475E+02 -.244E+04   -.268E+02 0.469E+02 0.244E+04   -.510E+00 0.121E+01 0.570E+00   0.961E-01 -.219E+00 0.273E+00
   -.269E+02 -.475E+02 -.244E+04   0.268E+02 0.469E+02 0.244E+04   0.510E+00 0.121E+01 0.570E+00   -.101E+00 -.219E+00 0.274E+00
   0.337E-04 -.293E-04 -.244E+04   0.141E-03 -.492E-04 0.244E+04   -.601E-17 -.389E-17 0.693E+00   -.324E-02 -.157E-02 0.304E+00
   -.288E-05 -.637E-05 -.132E+04   0.737E-04 0.671E-05 0.132E+04   0.343E-17 -.355E-17 0.156E+01   0.143E-02 0.858E-03 0.206E+00
   0.107E-03 -.597E-04 -.135E+04   0.222E-04 0.137E-05 0.138E+04   -.248E-18 0.125E-18 -.234E+02   0.185E-02 0.112E-02 -.287E+00
 -----------------------------------------------------------------------------------------------
   -.672E-03 -.830E-03 0.182E+02   -.825E-14 -.255E-12 -.364E-11   -.114E-15 -.732E-17 -.219E+02   -.776E-02 -.386E-02 0.427E+01
 
 
 POSITION                                       TOTAL-FORCE (eV/Angst)
 -----------------------------------------------------------------------------------
      0.00000      0.00000      5.28038        -0.000000     -0.000000     -0.122091
      2.93784      0.00000      5.28038         0.000585      0.002009     -0.052147
      5.87568      0.00000      5.28038        -0.000585      0.002009     -0.052147
      1.46892      2.54424      5.28038         0.002033     -0.000498     -0.052147
      4.40676      2.54424      5.28038        -0.000000     -0.000000     -0.082032
      7.34459      2.54424      5.28038        -0.002033     -0.000498     -0.052147
      2.93784      5.08848      5.28038         0.001447     -0.001511     -0.052147
      5.87568      5.08848      5.28038        -0.001447     -0.001511     -0.052147
      8.81351      5.08848      5.28038        -0.000000     -0.000000     -0.069325
      1.46892      0.84808      7.67911        -0.047548     -0.027452      0.122679
      4.40676      0.84808      7.67911        -0.000000     -0.070965      0.031188
      7.34459      0.84808      7.67911         0.047548     -0.027452      0.122679
      2.93784      3.39232      7.67911        -0.061457      0.035482      0.031188
      5.87568      3.39232      7.67911         0.061457      0.035482      0.031188
      8.81351      3.39232      7.67911        -0.000000     -0.061243      0.127585
      4.40676      5.93656      7.67911         0.000000      0.054903      0.122679
      7.34459      5.93656      7.67911        -0.053038      0.030622      0.127585
     10.28243      5.93656      7.67911         0.053038      0.030622      0.127585
      8.81351      1.70659     10.09931        -0.000000     -0.064539     -0.044156
      2.93410      1.69400     10.03753        -0.214777     -0.124001     -0.239710
      5.87941      1.69400     10.03753         0.214777     -0.124001     -0.239710
     10.26439      4.25082     10.06692         0.063555     -0.036694      0.007037
      4.40676      4.24472     10.03753         0.000000      0.248003     -0.239710
      7.36264      4.25082     10.06692        -0.063555     -0.036694      0.007037
     11.74232      6.77943     10.09931         0.055892      0.032269     -0.044156
      5.88471      6.77943     10.09931        -0.055892      0.032269     -0.044156
      8.81351      6.76381     10.06692         0.000000      0.073387      0.007037
      0.00000      0.00000     12.49835        -0.000000     -0.000000     -0.040003
      2.98825      0.08685     12.53577        -0.234828     -0.459791     -0.270202
      5.82526      0.08685     12.53577         0.234828     -0.459791     -0.270202
      1.56934      2.54447     12.53577        -0.515605      0.026528     -0.270202
      7.24417      2.54447     12.53577         0.515605      0.026528     -0.270202
      2.98785      5.00140     12.53577        -0.280777      0.433263     -0.270202
      5.82567      5.00140     12.53577         0.280777      0.433263     -0.270202
      8.81351      5.08848     12.49628        -0.000000     -0.000000      0.056014
      4.40676      2.54424     12.20474        -0.000000     -0.000000      2.201341
      4.40676      2.54424     13.90995        -0.000000     -0.000000     -0.023677
 -----------------------------------------------------------------------------------
    total drift:                               -0.008430     -0.004693      0.560434


--------------------------------------------------------------------------------------------------------



  FREE ENERGIE OF THE ION-ELECTRON SYSTEM (eV)
  ---------------------------------------------------
  free  energy   TOTEN  =      -124.76387610 eV

  energy  without entropy=     -124.76387610  energy(sigma->0) =     -124.76387610
 


--------------------------------------------------------------------------------------------------------


    POTLOK:  cpu time    0.0428: real time    0.0429


--------------------------------------------------------------------------------------------------------


 stress matrix after NEB project (eV)
    -18.71814     -0.00000      0.00000
     -0.00000    -18.71814      0.00000
      0.00000      0.00000      2.31933
  FORCES: max atom, RMS     0.023677    0.003893
  FORCE total and by dimension    0.023677    0.023677
  Stress total and by dimension   26.572860   18.718142
     LOOP+:  cpu time   87.2893: real time   87.3042
 -----------------------------------------------------------------------------
|                                                                             |
|           W    W    AA    RRRRR   N    N  II  N    N   GGGG   !!!           |
|           W    W   A  A   R    R  NN   N  II  NN   N  G    G  !!!           |
|           W    W  A    A  R    R  N N  N  II  N N  N  G       !!!           |
|           W WW W  AAAAAA  RRRRR   N  N N  II  N  N N  G  GGG   !            |
|           WW  WW  A    A  R   R   N   NN  II  N   NN  G    G                |
|           W    W  A    A  R    R  N    N  II  N    N   GGGG   !!!           |
|                                                                             |
|     Tetrahedron method does not include variations of the Fermi             |
|     occupations, so forces and stress will be inaccurate. We suggest        |
|     using a different smearing scheme ISMEAR = 1 or 2 for metals in         |
|     relaxations.                                                            |
|                                                                             |
 -----------------------------------------------------------------------------

    4ORBIT:  cpu time    0.0000: real time    0.0000



 total charge

# of ion       s       p       d       tot
------------------------------------------
    1        0.548   0.239   8.767   9.554
    2        0.543   0.241   8.765   9.549
    3        0.543   0.241   8.765   9.549
    4        0.543   0.241   8.765   9.549
    5        0.543   0.241   8.764   9.548
    6        0.543   0.241   8.765   9.549
    7        0.543   0.241   8.765   9.549
    8        0.543   0.241   8.765   9.549
    9        0.543   0.241   8.766   9.550
   10        0.520   0.307   8.771   9.598
   11        0.517   0.311   8.776   9.605
   12        0.520   0.307   8.771   9.598
   13        0.517   0.311   8.776   9.605
   14        0.517   0.311   8.776   9.605
   15        0.514   0.309   8.773   9.596
   16        0.520   0.307   8.771   9.598
   17        0.514   0.309   8.773   9.596
   18        0.514   0.309   8.773   9.596
   19        0.517   0.293   8.776   9.587
   20        0.557   0.339   8.746   9.642
   21        0.557   0.339   8.746   9.642
   22        0.509   0.309   8.773   9.591
   23        0.557   0.339   8.746   9.642
   24        0.509   0.309   8.773   9.591
   25        0.517   0.293   8.776   9.587
   26        0.517   0.293   8.776   9.587
   27        0.509   0.309   8.773   9.591
   28        0.545   0.224   8.759   9.528
   29        0.551   0.248   8.758   9.557
   30        0.551   0.248   8.758   9.557
   31        0.551   0.248   8.758   9.557
   32        0.551   0.248   8.758   9.557
   33        0.551   0.248   8.758   9.557
   34        0.551   0.248   8.758   9.557
   35        0.537   0.225   8.763   9.525
   36        0.601   0.580   4.957   6.138
   37        1.350   2.217   0.000   3.567
--------------------------------------------------
tot         20.635  12.507 311.757 344.899
 
 BZINTS: Fermi energy:    0.678041;  397.000000 electrons
         Band energy:-0.123036E+04;  BLOECHL correction:   -0.053345

 total amount of memory used by VASP MPI-rank0   122671. kBytes
=======================================================================

   base      :      30000. kBytes
   nonlr-proj:      14286. kBytes
   fftplans  :       4330. kBytes
   grid      :      17879. kBytes
   one-center:        575. kBytes
   wavefun   :      55601. kBytes
 
  
  
 General timing and accounting informations for this job:
 ========================================================
  
                  Total CPU time used (sec):       94.672
                            User time (sec):       91.513
                          System time (sec):        3.159
                         Elapsed time (sec):       95.058
  
                   Maximum memory used (kb):      379572.
                   Average memory used (kb):          N/A
  
                          Minor page faults:        78802
                          Major page faults:            0
                 Voluntary context switches:         4938
