PROCAR new format
# of k-points:   10         # of bands:  252         # of ions:   37

 k-point     1 :    0.00000000 0.00000000 0.00000000     weight = 0.01562500

band     1 # energy  -13.16235820 # occ.  2.00000000
 
ion      s      p      d    tot
    1  0.000  0.000  0.000  0.000
    2  0.000  0.000  0.000  0.000
    3  0.000  0.000  0.000  0.000
    4  0.000  0.000  0.000  0.000
    5  0.000  0.000  0.000  0.000
    6  0.000  0.000  0.000  0.000
    7  0.000  0.000  0.000  0.000
    8  0.000  0.000  0.000  0.000
    9  0.000  0.000  0.000  0.000
   10  0.000  0.000  0.000  0.000
   11  0.000  0.000  0.000  0.000
   12  0.000  0.000  0.000  0.000
   13  0.000  0.000  0.000  0.000
   14  0.000  0.000  0.000  0.000
   15  0.000  0.000  0.000  0.000
   16  0.000  0.000  0.000  0.000
   17  0.000  0.000  0.000  0.000
   18  0.000  0.000  0.000  0.000
   19  0.000  0.000  0.000  0.000
   20  0.000  0.000  0.001  0.001
   21  0.000  0.000  0.001  0.001
   22  0.000  0.000  0.000  0.000
   23  0.000  0.000  0.001  0.001
   24  0.000  0.000  0.000  0.000
   25  0.000  0.000  0.000  0.000
   26  0.000  0.000  0.000  0.000
   27  0.000  0.000  0.000  0.000
   28  0.000  0.000  0.000  0.000
   29  0.000  0.000  0.000  0.001
   30  0.000  0.000  0.000  0.001
   31  0.000  0.000  0.000  0.001
   32  0.000  0.000  0.000  0.001
   33  0.000  0.000  0.000  0.001
   34  0.000  0.000  0.000  0.001
   35  0.000  0.000  0.000  0.000
   36  0.082  0.060  0.157  0.299
   37  0.606  0.025  0.000  0.631
tot    0.691  0.086  0.160  0.937
 
band     2 # energy   -8.14925977 # occ.  2.00000000
 
ion      s      p      d    tot
    1  0.006  0.001  0.000  0.007
    2  0.006  0.001  0.000  0.007
    3  0.006  0.001  0.000  0.007
    4  0.006  0.001  0.000  0.007
    5  0.006  0.001  0.000  0.007
    6  0.006  0.001  0.000  0.007
    7  0.006  0.001  0.000  0.007
    8  0.006  0.001  0.000  0.007
    9  0.006  0.000  0.000  0.007
   10  0.025  0.000  0.000  0.026
   11  0.027  0.000  0.000  0.027
   12  0.025  0.000  0.000  0.026
   13  0.027  0.000  0.000  0.027
   14  0.027  0.000  0.000  0.027
   15  0.025  0.000  0.000  0.025
   16  0.025  0.000  0.000  0.026
   17  0.025  0.000  0.000  0.025
   18  0.025  0.000  0.000  0.025
   19  0.022  0.000  0.000  0.023
   20  0.029  0.000  0.000  0.030
   21  0.029  0.000  0.000  0.030
   22  0.024  0.000  0.000  0.025
   23  0.029  0.000  0.000  0.030
   24  0.024  0.000  0.000  0.025
   25  0.022  0.000  0.000  0.023
   26  0.022  0.000  0.000  0.023
   27  0.024  0.000  0.000  0.025
   28  0.005  0.000  0.000  0.005
   29  0.005  0.000  0.000  0.006
   30  0.005  0.000  0.000  0.006
   31  0.005  0.000  0.000  0.006
   32  0.005  0.000  0.000  0.006
   33  0.005  0.000  0.000  0.006
   34  0.005  0.000  0.000  0.006
   35  0.005  0.000  0.000  0.005
   36  0.007  0.003  0.001  0.010
   37  0.002  0.000  0.000  0.002
tot    0.564  0.014  0.004  0.583
 
band     3 # energy   -6.98796755 # occ.  2.00000000
 
ion      s      p      d    tot
    1  0.016  0.000  0.001  0.018
    2  0.016  0.000  0.001  0.018
    3  0.016  0.000  0.001  0.018
    4  0.016  0.000  0.001  0.018
    5  0.016  0.000  0.001  0.018
    6  0.016  0.000  0.001  0.018
    7  0.016  0.000  0.001  0.018
    8  0.016  0.000  0.001  0.018
    9  0.017  0.000  0.001  0.018
   10  0.011  0.001  0.003  0.015
   11  0.010  0.001  0.003  0.014
   12  0.011  0.001  0.003  0.015
   13  0.010  0.001  0.003  0.014
   14  0.010  0.001  0.003  0.014
   15  0.012  0.001  0.002  0.015
   16  0.011  0.001  0.003  0.015
   17  0.012  0.001  0.002  0.015
   18  0.012  0.001  0.002  0.015
   19  0.011  0.001  0.003  0.015
   20  0.016  0.002  0.003  0.021
   21  0.017  0.002  0.003  0.021
   22  0.012  0.001  0.003  0.016
   23  0.017  0.002  0.003  0.021
   24  0.012  0.001  0.003  0.016
   25  0.011  0.001  0.003  0.015
   26  0.011  0.001  0.003  0.015
   27  0.012  0.001  0.003  0.016
   28  0.012  0.000  0.001  0.013
   29  0.014  0.001  0.001  0.016
   30  0.014  0.001  0.001  0.016
   31  0.014  0.001  0.001  0.016
   32  0.014  0.001  0.001  0.016
   33  0.014  0.001  0.001  0.016
   34  0.014  0.001  0.001  0.016
   35  0.012  0.000  0.000  0.013
   36  0.017  0.003  0.004  0.024
   37  0.003  0.000  0.000  0.003
tot    0.496  0.035  0.070  0.602
 
band     4 # energy   -6.07650892 # occ.  2.00000000
 
ion      s      p      d    tot
    1  0.002  0.001  0.002  0.006
    2  0.000  0.000  0.004  0.004
    3  0.000  0.000  0.004  0.004
    4  0.000  0.000  0.004  0.004
    5  0.000  0.000  0.000  0.000
    6  0.000  0.000  0.004  0.004
    7  0.000  0.000  0.004  0.004
    8  0.000  0.000  0.004  0.004
    9  0.012  0.001  0.000  0.014
   10  0.006  0.000  0.021  0.028
   11  0.006  0.002  0.009  0.017
   12  0.006  0.000  0.021  0.028
   13  0.006  0.002  0.009  0.017
   14  0.006  0.002  0.009  0.017
   15  0.020  0.001  0.006  0.027
   16  0.006  0.000  0.021  0.028
   17  0.020  0.001  0.006  0.027
   18  0.020  0.001  0.006  0.027
   19  0.000  0.001  0.024  0.025
   20  0.031  0.002  0.030  0.063
   21  0.031  0.002  0.030  0.063
   22  0.017  0.003  0.004  0.023
   23  0.031  0.002  0.030  0.063
   24  0.017  0.003  0.004  0.023
   25  0.000  0.001  0.024  0.025
   26  0.000  0.001  0.024  0.025
   27  0.017  0.003  0.004  0.023
   28  0.007  0.000  0.000  0.007
   29  0.003  0.000  0.006  0.009
   30  0.003  0.000  0.006  0.009
   31  0.003  0.000  0.006  0.009
   32  0.003  0.000  0.006  0.009
   33  0.003  0.000  0.006  0.009
   34  0.003  0.000  0.006  0.009
   35  0.016  0.001  0.000  0.017
   36  0.008  0.007  0.010  0.025
   37  0.003  0.004  0.000  0.007
tot    0.308  0.046  0.349  0.703
 
band     5 # energy   -6.04489585 # occ.  2.00000000
 
ion      s      p      d    tot
    1  0.000  0.000  0.007  0.008
    2  0.003  0.001  0.003  0.007
    3  0.005  0.001  0.003  0.009
    4  0.003  0.001  0.003  0.007
    5  0.000  0.001  0.005  0.006
    6  0.000  0.000  0.002  0.003
    7  0.005  0.001  0.003  0.009
    8  0.000  0.000  0.002  0.003
    9  0.000  0.000  0.001  0.001
   10  0.000  0.000  0.030  0.030
   11  0.034  0.002  0.014  0.049
   12  0.027  0.002  0.012  0.040
   13  0.034  0.001  0.014  0.050
   14  0.000  0.004  0.023  0.027
   15  0.000  0.001  0.009  0.010
   16  0.026  0.002  0.012  0.040
   17  0.000  0.001  0.009  0.010
   18  0.000  0.003  0.005  0.008
   19  0.008  0.001  0.010  0.020
   20  0.000  0.002  0.039  0.042
   21  0.054  0.001  0.020  0.075
   22  0.011  0.001  0.010  0.022
   23  0.053  0.001  0.020  0.074
   24  0.000  0.001  0.026  0.027
   25  0.000  0.004  0.003  0.007
   26  0.009  0.001  0.011  0.020
   27  0.011  0.001  0.010  0.023
   28  0.000  0.000  0.001  0.002
   29  0.000  0.000  0.002  0.003
   30  0.005  0.001  0.004  0.010
   31  0.000  0.000  0.002  0.003
   32  0.005  0.001  0.004  0.011
   33  0.005  0.001  0.004  0.010
   34  0.005  0.001  0.004  0.010
   35  0.000  0.000  0.004  0.004
   36  0.000  0.003  0.015  0.018
   37  0.000  0.001  0.000  0.001
tot    0.304  0.044  0.348  0.696
 
band     6 # energy   -6.04487343 # occ.  2.00000000
 
ion      s      p      d    tot
    1  0.000  0.000  0.007  0.008
    2  0.003  0.001  0.002  0.006
    3  0.000  0.000  0.003  0.004
    4  0.003  0.001  0.002  0.005
    5  0.000  0.001  0.005  0.006
    6  0.005  0.001  0.003  0.009
    7  0.000  0.000  0.003  0.003
    8  0.005  0.001  0.003  0.009
    9  0.000  0.000  0.001  0.001
   10  0.035  0.002  0.006  0.044
   11  0.012  0.003  0.020  0.035
   12  0.009  0.001  0.024  0.033
   13  0.011  0.003  0.020  0.034
   14  0.045  0.001  0.011  0.057
   15  0.000  0.002  0.006  0.009
   16  0.009  0.001  0.024  0.034
   17  0.000  0.002  0.006  0.008
   18  0.001  0.000  0.010  0.011
   19  0.003  0.003  0.005  0.011
   20  0.071  0.001  0.013  0.086
   21  0.017  0.002  0.033  0.052
   22  0.004  0.001  0.021  0.025
   23  0.018  0.002  0.033  0.053
   24  0.015  0.002  0.005  0.021
   25  0.011  0.000  0.013  0.025
   26  0.003  0.003  0.005  0.011
   27  0.004  0.001  0.021  0.025
   28  0.000  0.000  0.001  0.002
   29  0.006  0.001  0.005  0.013
   30  0.002  0.001  0.003  0.005
   31  0.006  0.001  0.005  0.013
   32  0.001  0.000  0.003  0.005
   33  0.002  0.001  0.003  0.005
   34  0.001  0.000  0.003  0.005
   35  0.000  0.000  0.004  0.004
   36  0.000  0.003  0.015  0.018
   37  0.000  0.001  0.000  0.001
tot    0.304  0.044  0.348  0.696
 
band     7 # energy   -6.02451527 # occ.  2.00000000
 
ion      s      p      d    tot
    1  0.010  0.000  0.004  0.015
    2  0.008  0.000  0.006  0.015
    3  0.008  0.000  0.006  0.015
    4  0.008  0.000  0.006  0.015
    5  0.014  0.000  0.006  0.019
    6  0.008  0.000  0.006  0.015
    7  0.008  0.000  0.006  0.015
    8  0.008  0.000  0.006  0.015
    9  0.003  0.000  0.008  0.012
   10  0.001  0.001  0.004  0.006
   11  0.000  0.001  0.002  0.003
   12  0.001  0.001  0.004  0.006
   13  0.000  0.001  0.002  0.003
   14  0.000  0.001  0.002  0.003
   15  0.007  0.001  0.002  0.010
   16  0.001  0.001  0.004  0.006
   17  0.007  0.001  0.002  0.010
   18  0.007  0.001  0.002  0.010
   19  0.010  0.001  0.008  0.019
   20  0.000  0.001  0.023  0.024
   21  0.000  0.001  0.023  0.024
   22  0.008  0.001  0.009  0.018
   23  0.000  0.001  0.023  0.024
   24  0.008  0.001  0.009  0.018
   25  0.010  0.001  0.008  0.019
   26  0.010  0.001  0.008  0.019
   27  0.008  0.001  0.009  0.018
   28  0.009  0.000  0.014  0.024
   29  0.020  0.000  0.016  0.037
   30  0.020  0.000  0.016  0.037
   31  0.020  0.000  0.016  0.037
   32  0.020  0.000  0.016  0.037
   33  0.020  0.000  0.016  0.037
   34  0.020  0.000  0.016  0.037
   35  0.012  0.000  0.012  0.024
   36  0.029  0.000  0.030  0.058
   37  0.001  0.000  0.000  0.002
tot    0.328  0.023  0.353  0.703
 
band     8 # energy   -5.99423789 # occ.  2.00000000
 
ion      s      p      d    tot
    1  0.017  0.000  0.015  0.032
    2  0.013  0.000  0.015  0.028
    3  0.013  0.000  0.015  0.028
    4  0.013  0.000  0.015  0.028
    5  0.008  0.000  0.016  0.025
    6  0.013  0.000  0.015  0.028
    7  0.013  0.000  0.015  0.028
    8  0.013  0.000  0.015  0.028
    9  0.016  0.000  0.012  0.029
   10  0.003  0.000  0.029  0.032
   11  0.015  0.000  0.022  0.037
   12  0.003  0.000  0.029  0.032
   13  0.015  0.000  0.022  0.037
   14  0.015  0.000  0.022  0.037
   15  0.005  0.000  0.025  0.030
   16  0.003  0.000  0.029  0.032
   17  0.005  0.000  0.025  0.030
   18  0.005  0.000  0.025  0.030
   19  0.007  0.000  0.009  0.016
   20  0.001  0.000  0.023  0.024
   21  0.001  0.000  0.023  0.024
   22  0.001  0.000  0.012  0.013
   23  0.001  0.000  0.023  0.024
   24  0.001  0.000  0.012  0.013
   25  0.007  0.000  0.009  0.016
   26  0.007  0.000  0.009  0.016
   27  0.001  0.000  0.012  0.013
   28  0.000  0.000  0.002  0.003
   29  0.002  0.000  0.003  0.004
   30  0.002  0.000  0.003  0.004
   31  0.002  0.000  0.003  0.004
   32  0.002  0.000  0.003  0.004
   33  0.002  0.000  0.003  0.004
   34  0.002  0.000  0.003  0.004
   35  0.002  0.000  0.001  0.003
   36  0.002  0.000  0.007  0.008
   37  0.000  0.000  0.000  0.000
tot    0.228  0.006  0.520  0.754
 
band     9 # energy   -5.94531137 # occ.  2.00000000
 
ion      s      p      d    tot
    1  0.008  0.001  0.001  0.011
    2  0.000  0.001  0.006  0.007
    3  0.000  0.001  0.006  0.007
    4  0.000  0.001  0.006  0.007
    5  0.016  0.002  0.001  0.019
    6  0.000  0.001  0.006  0.007
    7  0.000  0.001  0.006  0.007
    8  0.000  0.001  0.006  0.007
    9  0.000  0.000  0.002  0.002
   10  0.027  0.003  0.000  0.030
   11  0.018  0.001  0.025  0.043
   12  0.027  0.003  0.000  0.030
   13  0.018  0.001  0.025  0.043
   14  0.018  0.001  0.025  0.043
   15  0.000  0.001  0.021  0.023
   16  0.027  0.003  0.000  0.030
   17  0.000  0.001  0.021  0.023
   18  0.000  0.001  0.021  0.023
   19  0.018  0.002  0.007  0.027
   20  0.006  0.002  0.020  0.028
   21  0.006  0.002  0.020  0.028
   22  0.012  0.000  0.025  0.037
   23  0.006  0.002  0.020  0.028
   24  0.012  0.000  0.025  0.037
   25  0.018  0.002  0.007  0.027
   26  0.018  0.002  0.007  0.027
   27  0.012  0.000  0.025  0.037
   28  0.016  0.001  0.000  0.018
   29  0.001  0.000  0.004  0.006
   30  0.001  0.000  0.004  0.006
   31  0.001  0.000  0.004  0.006
   32  0.001  0.000  0.004  0.006
   33  0.001  0.000  0.004  0.006
   34  0.001  0.000  0.004  0.006
   35  0.001  0.001  0.006  0.008
   36  0.000  0.000  0.000  0.000
   37  0.000  0.000  0.000  0.000
tot    0.292  0.037  0.369  0.698
 
band    10 # energy   -5.92983356 # occ.  2.00000000
 
ion      s      p      d    tot
    1  0.000  0.001  0.003  0.004
    2  0.004  0.001  0.004  0.009
    3  0.008  0.001  0.004  0.013
    4  0.004  0.001  0.004  0.009
    5  0.000  0.000  0.005  0.005
    6  0.001  0.000  0.003  0.004
    7  0.008  0.001  0.004  0.013
    8  0.001  0.000  0.003  0.004
    9  0.000  0.001  0.011  0.012
   10  0.023  0.000  0.017  0.039
   11  0.003  0.001  0.022  0.026
   12  0.005  0.004  0.006  0.015
   13  0.003  0.001  0.023  0.027
   14  0.011  0.001  0.007  0.019
   15  0.017  0.001  0.032  0.050
   16  0.006  0.003  0.006  0.016
   17  0.015  0.001  0.033  0.050
   18  0.064  0.002  0.006  0.071
   19  0.010  0.001  0.027  0.037
   20  0.000  0.001  0.015  0.016
   21  0.000  0.002  0.012  0.014
   22  0.009  0.003  0.016  0.028
   23  0.000  0.002  0.012  0.014
   24  0.037  0.001  0.011  0.049
   25  0.038  0.002  0.003  0.043
   26  0.009  0.001  0.027  0.037
   27  0.010  0.003  0.016  0.028
   28  0.000  0.000  0.006  0.006
   29  0.000  0.000  0.002  0.002
   30  0.002  0.000  0.002  0.004
   31  0.000  0.000  0.002  0.002
   32  0.004  0.001  0.003  0.007
   33  0.002  0.000  0.002  0.004
   34  0.004  0.001  0.003  0.007
   35  0.000  0.001  0.004  0.005
   36  0.000  0.000  0.001  0.001
   37  0.000  0.000  0.000  0.000
tot    0.296  0.041  0.356  0.694
 
band    11 # energy   -5.92980472 # occ.  2.00000000
 
ion      s      p      d    tot
    1  0.000  0.001  0.003  0.004
    2  0.005  0.001  0.003  0.009
    3  0.000  0.000  0.004  0.004
    4  0.005  0.001  0.003  0.009
    5  0.000  0.000  0.005  0.005
    6  0.008  0.001  0.004  0.013
    7  0.000  0.000  0.004  0.004
    8  0.008  0.001  0.004  0.013
    9  0.000  0.001  0.011  0.012
   10  0.000  0.005  0.003  0.007
   11  0.008  0.001  0.012  0.022
   12  0.017  0.001  0.013  0.032
   13  0.008  0.001  0.012  0.021
   14  0.000  0.001  0.028  0.029
   15  0.047  0.001  0.015  0.064
   16  0.017  0.001  0.013  0.031
   17  0.048  0.001  0.015  0.065
   18  0.000  0.001  0.041  0.043
   19  0.028  0.002  0.011  0.041
   20  0.000  0.002  0.011  0.013
   21  0.000  0.001  0.014  0.015
   22  0.028  0.001  0.013  0.042
   23  0.000  0.001  0.014  0.015
   24  0.000  0.004  0.018  0.021
   25  0.000  0.000  0.035  0.035
   26  0.029  0.002  0.011  0.041
   27  0.027  0.002  0.013  0.042
   28  0.000  0.000  0.006  0.006
   29  0.004  0.001  0.002  0.007
   30  0.002  0.000  0.002  0.005
   31  0.004  0.001  0.002  0.007
   32  0.000  0.000  0.001  0.002
   33  0.002  0.000  0.002  0.005
   34  0.000  0.000  0.001  0.002
   35  0.000  0.001  0.004  0.005
   36  0.000  0.000  0.001  0.001
   37  0.000  0.000  0.000  0.000
tot    0.296  0.041  0.356  0.694
 
band    12 # energy   -5.54932637 # occ.  2.00000000
 
ion      s      p      d    tot
    1  0.000  0.001  0.004  0.005
    2  0.001  0.001  0.005  0.006
    3  0.010  0.002  0.004  0.016
    4  0.002  0.001  0.005  0.007
    5  0.000  0.002  0.010  0.011
    6  0.005  0.001  0.004  0.010
    7  0.009  0.002  0.005  0.015
    8  0.003  0.001  0.004  0.008
    9  0.000  0.000  0.008  0.008
   10  0.000  0.001  0.051  0.051
   11  0.017  0.001  0.023  0.041
   12  0.009  0.001  0.016  0.026
   13  0.021  0.001  0.017  0.039
   14  0.000  0.000  0.048  0.048
   15  0.001  0.001  0.018  0.020
   16  0.007  0.001  0.022  0.031
   17  0.002  0.000  0.020  0.022
   18  0.000  0.001  0.012  0.014
   19  0.002  0.000  0.016  0.018
   20  0.000  0.000  0.085  0.085
   21  0.015  0.001  0.020  0.037
   22  0.004  0.001  0.017  0.022
   23  0.012  0.001  0.032  0.045
   24  0.000  0.001  0.030  0.031
   25  0.000  0.001  0.009  0.010
   26  0.003  0.000  0.017  0.020
   27  0.003  0.001  0.019  0.024
   28  0.000  0.000  0.006  0.006
   29  0.003  0.001  0.005  0.008
   30  0.007  0.001  0.005  0.014
   31  0.005  0.001  0.005  0.010
   32  0.001  0.000  0.003  0.005
   33  0.008  0.001  0.006  0.015
   34  0.000  0.000  0.003  0.004
   35  0.000  0.000  0.002  0.002
   36  0.000  0.003  0.013  0.016
   37  0.000  0.001  0.000  0.001
tot    0.151  0.031  0.569  0.751
 
band    13 # energy   -5.54932601 # occ.  2.00000000
 
ion      s      p      d    tot
    1  0.000  0.001  0.004  0.005
    2  0.009  0.001  0.004  0.015
    3  0.000  0.000  0.004  0.005
    4  0.008  0.001  0.004  0.013
    5  0.000  0.002  0.010  0.011
    6  0.005  0.001  0.005  0.011
    7  0.001  0.000  0.004  0.005
    8  0.007  0.001  0.005  0.013
    9  0.000  0.000  0.008  0.008
   10  0.011  0.002  0.009  0.021
   11  0.008  0.000  0.036  0.045
   12  0.002  0.001  0.043  0.046
   13  0.005  0.000  0.041  0.046
   14  0.025  0.001  0.011  0.037
   15  0.001  0.001  0.015  0.017
   16  0.003  0.001  0.037  0.041
   17  0.000  0.001  0.014  0.015
   18  0.002  0.000  0.022  0.024
   19  0.001  0.000  0.012  0.014
   20  0.018  0.001  0.007  0.026
   21  0.003  0.000  0.071  0.075
   22  0.001  0.001  0.027  0.029
   23  0.006  0.001  0.060  0.066
   24  0.005  0.001  0.014  0.020
   25  0.003  0.000  0.018  0.022
   26  0.001  0.001  0.011  0.012
   27  0.002  0.001  0.025  0.028
   28  0.000  0.000  0.006  0.006
   29  0.005  0.001  0.005  0.011
   30  0.001  0.000  0.004  0.005
   31  0.004  0.001  0.004  0.009
   32  0.007  0.001  0.006  0.014
   33  0.000  0.000  0.004  0.004
   34  0.008  0.001  0.006  0.015
   35  0.000  0.000  0.002  0.002
   36  0.000  0.003  0.013  0.016
   37  0.000  0.001  0.000  0.001
tot    0.151  0.031  0.569  0.751
 
band    14 # energy   -5.54611692 # occ.  2.00000000
 
ion      s      p      d    tot
    1  0.009  0.001  0.000  0.010
    2  0.000  0.001  0.006  0.006
    3  0.000  0.001  0.006  0.006
    4  0.000  0.001  0.006  0.006
    5  0.010  0.001  0.001  0.012
    6  0.000  0.001  0.006  0.006
    7  0.000  0.001  0.006  0.006
    8  0.000  0.001  0.006  0.006
    9  0.000  0.000  0.001  0.001
   10  0.001  0.001  0.021  0.023
   11  0.011  0.002  0.006  0.018
   12  0.001  0.001  0.021  0.023
   13  0.011  0.002  0.006  0.018
   14  0.011  0.002  0.006  0.019
   15  0.005  0.000  0.034  0.040
   16  0.001  0.001  0.021  0.023
   17  0.005  0.000  0.034  0.040
   18  0.005  0.000  0.034  0.039
   19  0.014  0.002  0.007  0.022
   20  0.002  0.002  0.037  0.041
   21  0.002  0.002  0.037  0.041
   22  0.003  0.000  0.041  0.045
   23  0.002  0.002  0.037  0.041
   24  0.004  0.000  0.042  0.046
   25  0.014  0.002  0.007  0.022
   26  0.014  0.002  0.007  0.022
   27  0.003  0.000  0.041  0.045
   28  0.016  0.002  0.001  0.019
   29  0.000  0.001  0.011  0.012
   30  0.000  0.001  0.011  0.012
   31  0.000  0.001  0.011  0.012
   32  0.000  0.001  0.011  0.012
   33  0.000  0.001  0.011  0.012
   34  0.000  0.001  0.011  0.012
   35  0.000  0.000  0.002  0.002
   36  0.020  0.004  0.000  0.024
   37  0.002  0.001  0.000  0.003
tot    0.166  0.039  0.542  0.747
 
band    15 # energy   -5.52060857 # occ.  2.00000000
 
ion      s      p      d    tot
    1  0.005  0.001  0.003  0.009
    2  0.000  0.001  0.009  0.010
    3  0.000  0.001  0.009  0.010
    4  0.000  0.001  0.009  0.010
    5  0.006  0.000  0.001  0.007
    6  0.000  0.001  0.009  0.010
    7  0.000  0.001  0.009  0.010
    8  0.000  0.001  0.009  0.010
    9  0.023  0.002  0.001  0.026
   10  0.010  0.001  0.032  0.042
   11  0.000  0.000  0.044  0.044
   12  0.010  0.001  0.032  0.042
   13  0.000  0.000  0.044  0.044
   14  0.000  0.000  0.044  0.044
   15  0.013  0.002  0.007  0.022
   16  0.010  0.001  0.032  0.042
   17  0.013  0.002  0.007  0.022
   18  0.013  0.002  0.007  0.022
   19  0.000  0.000  0.024  0.024
   20  0.004  0.001  0.041  0.047
   21  0.004  0.001  0.041  0.047
   22  0.008  0.001  0.013  0.022
   23  0.004  0.001  0.041  0.047
   24  0.008  0.001  0.013  0.022
   25  0.000  0.000  0.024  0.024
   26  0.000  0.000  0.024  0.024
   27  0.008  0.001  0.013  0.022
   28  0.004  0.000  0.001  0.005
   29  0.000  0.000  0.004  0.004
   30  0.000  0.000  0.004  0.004
   31  0.000  0.000  0.004  0.004
   32  0.000  0.000  0.004  0.004
   33  0.000  0.000  0.004  0.004
   34  0.000  0.000  0.004  0.004
   35  0.006  0.001  0.003  0.011
   36  0.004  0.002  0.003  0.009
   37  0.002  0.002  0.000  0.003
tot    0.155  0.032  0.571  0.758
 
band    16 # energy   -5.45070903 # occ.  2.00000000
 
ion      s      p      d    tot
    1  0.000  0.001  0.014  0.015
    2  0.001  0.001  0.005  0.006
    3  0.008  0.001  0.004  0.014
    4  0.000  0.001  0.005  0.006
    5  0.000  0.000  0.006  0.006
    6  0.005  0.001  0.004  0.010
    7  0.009  0.001  0.004  0.014
    8  0.005  0.001  0.004  0.010
    9  0.000  0.001  0.006  0.007
   10  0.012  0.000  0.017  0.029
   11  0.000  0.001  0.017  0.018
   12  0.003  0.000  0.029  0.032
   13  0.000  0.001  0.017  0.019
   14  0.000  0.001  0.022  0.023
   15  0.003  0.001  0.048  0.052
   16  0.003  0.000  0.029  0.033
   17  0.003  0.001  0.046  0.050
   18  0.013  0.002  0.006  0.021
   19  0.005  0.001  0.052  0.058
   20  0.000  0.000  0.026  0.026
   21  0.000  0.001  0.024  0.026
   22  0.006  0.001  0.025  0.032
   23  0.000  0.001  0.024  0.026
   24  0.022  0.001  0.018  0.041
   25  0.020  0.001  0.004  0.025
   26  0.005  0.001  0.050  0.056
   27  0.005  0.001  0.026  0.032
   28  0.000  0.001  0.005  0.006
   29  0.002  0.000  0.004  0.006
   30  0.007  0.001  0.002  0.010
   31  0.001  0.000  0.004  0.006
   32  0.002  0.001  0.005  0.007
   33  0.007  0.001  0.002  0.010
   34  0.002  0.001  0.005  0.007
   35  0.000  0.001  0.008  0.009
   36  0.000  0.000  0.003  0.003
   37  0.000  0.000  0.000  0.000
tot    0.148  0.028  0.575  0.751
 
band    17 # energy   -5.45070740 # occ.  2.00000000
 
ion      s      p      d    tot
    1  0.000  0.001  0.014  0.015
    2  0.009  0.001  0.004  0.014
    3  0.001  0.000  0.005  0.006
    4  0.009  0.001  0.004  0.014
    5  0.000  0.000  0.006  0.006
    6  0.004  0.001  0.005  0.010
    7  0.001  0.000  0.005  0.006
    8  0.004  0.001  0.005  0.010
    9  0.000  0.001  0.006  0.007
   10  0.000  0.001  0.033  0.033
   11  0.000  0.001  0.020  0.021
   12  0.009  0.000  0.022  0.030
   13  0.000  0.001  0.020  0.021
   14  0.000  0.001  0.016  0.017
   15  0.010  0.002  0.019  0.031
   16  0.009  0.000  0.021  0.030
   17  0.009  0.002  0.021  0.032
   18  0.000  0.000  0.061  0.061
   19  0.015  0.001  0.019  0.035
   20  0.000  0.002  0.024  0.026
   21  0.000  0.001  0.026  0.026
   22  0.016  0.001  0.021  0.037
   23  0.000  0.001  0.026  0.026
   24  0.000  0.001  0.028  0.029
   25  0.000  0.000  0.067  0.068
   26  0.014  0.001  0.021  0.036
   27  0.017  0.001  0.020  0.038
   28  0.000  0.001  0.005  0.006
   29  0.005  0.001  0.004  0.009
   30  0.000  0.000  0.005  0.006
   31  0.005  0.001  0.003  0.010
   32  0.005  0.001  0.003  0.008
   33  0.000  0.000  0.005  0.006
   34  0.005  0.001  0.003  0.008
   35  0.000  0.001  0.008  0.009
   36  0.000  0.000  0.003  0.003
   37  0.000  0.000  0.000  0.000
tot    0.148  0.028  0.575  0.751
 
band    18 # energy   -5.16879712 # occ.  2.00000000
 
ion      s      p      d    tot
    1  0.009  0.000  0.006  0.016
    2  0.000  0.001  0.016  0.017
    3  0.000  0.001  0.016  0.017
    4  0.000  0.001  0.016  0.017
    5  0.003  0.000  0.002  0.006
    6  0.000  0.001  0.016  0.017
    7  0.000  0.001  0.016  0.017
    8  0.000  0.001  0.016  0.017
    9  0.023  0.001  0.002  0.026
   10  0.001  0.000  0.018  0.019
   11  0.000  0.000  0.024  0.024
   12  0.001  0.000  0.018  0.019
   13  0.000  0.000  0.024  0.024
   14  0.000  0.000  0.024  0.024
   15  0.000  0.000  0.030  0.030
   16  0.001  0.000  0.018  0.019
   17  0.000  0.000  0.030  0.030
   18  0.000  0.000  0.030  0.031
   19  0.000  0.000  0.025  0.025
   20  0.001  0.000  0.036  0.036
   21  0.001  0.000  0.036  0.037
   22  0.000  0.000  0.029  0.029
   23  0.001  0.000  0.036  0.036
   24  0.000  0.000  0.029  0.029
   25  0.000  0.000  0.025  0.025
   26  0.000  0.000  0.025  0.025
   27  0.000  0.000  0.029  0.029
   28  0.001  0.000  0.010  0.011
   29  0.000  0.001  0.020  0.021
   30  0.000  0.001  0.020  0.021
   31  0.000  0.001  0.020  0.021
   32  0.000  0.001  0.020  0.021
   33  0.000  0.001  0.020  0.021
   34  0.000  0.001  0.020  0.021
   35  0.018  0.001  0.000  0.019
   36  0.010  0.000  0.012  0.022
   37  0.000  0.000  0.000  0.000
tot    0.071  0.018  0.731  0.820
 
band    19 # energy   -5.16799030 # occ.  2.00000000
 
ion      s      p      d    tot
    1  0.000  0.000  0.017  0.017
    2  0.003  0.001  0.007  0.010
    3  0.002  0.000  0.010  0.012
    4  0.002  0.001  0.007  0.010
    5  0.000  0.001  0.016  0.017
    6  0.008  0.001  0.008  0.016
    7  0.001  0.000  0.010  0.012
    8  0.008  0.001  0.007  0.016
    9  0.000  0.001  0.003  0.004
   10  0.000  0.001  0.025  0.025
   11  0.000  0.000  0.056  0.056
   12  0.000  0.000  0.012  0.012
   13  0.000  0.000  0.056  0.057
   14  0.001  0.000  0.051  0.052
   15  0.000  0.000  0.012  0.012
   16  0.000  0.000  0.013  0.013
   17  0.000  0.000  0.011  0.012
   18  0.000  0.000  0.020  0.020
   19  0.000  0.000  0.007  0.007
   20  0.001  0.000  0.104  0.105
   21  0.000  0.000  0.062  0.063
   22  0.000  0.000  0.026  0.027
   23  0.000  0.000  0.065  0.066
   24  0.002  0.000  0.017  0.019
   25  0.000  0.000  0.015  0.015
   26  0.000  0.000  0.007  0.007
   27  0.000  0.000  0.025  0.026
   28  0.000  0.000  0.003  0.003
   29  0.007  0.001  0.016  0.025
   30  0.001  0.000  0.010  0.011
   31  0.007  0.001  0.017  0.025
   32  0.002  0.000  0.006  0.009
   33  0.001  0.000  0.010  0.012
   34  0.003  0.001  0.007  0.010
   35  0.000  0.000  0.013  0.013
   36  0.000  0.003  0.016  0.019
   37  0.000  0.000  0.000  0.000
tot    0.054  0.016  0.766  0.836
 
band    20 # energy   -5.16798976 # occ.  2.00000000
 
ion      s      p      d    tot
    1  0.000  0.000  0.017  0.017
    2  0.005  0.000  0.010  0.015
    3  0.007  0.001  0.006  0.013
    4  0.006  0.000  0.009  0.016
    5  0.000  0.001  0.016  0.017
    6  0.000  0.000  0.009  0.009
    7  0.007  0.001  0.006  0.014
    8  0.000  0.000  0.009  0.009
    9  0.000  0.001  0.003  0.004
   10  0.000  0.000  0.008  0.008
   11  0.001  0.000  0.053  0.054
   12  0.000  0.001  0.021  0.022
   13  0.001  0.000  0.052  0.053
   14  0.000  0.000  0.058  0.058
   15  0.000  0.000  0.017  0.017
   16  0.000  0.000  0.020  0.021
   17  0.000  0.000  0.018  0.018
   18  0.000  0.000  0.009  0.009
   19  0.000  0.000  0.012  0.012
   20  0.000  0.001  0.050  0.051
   21  0.001  0.000  0.092  0.093
   22  0.001  0.000  0.019  0.021
   23  0.001  0.000  0.089  0.090
   24  0.000  0.000  0.029  0.029
   25  0.000  0.000  0.004  0.004
   26  0.000  0.000  0.013  0.013
   27  0.001  0.000  0.020  0.022
   28  0.000  0.000  0.003  0.003
   29  0.000  0.000  0.006  0.006
   30  0.006  0.001  0.012  0.020
   31  0.000  0.000  0.005  0.006
   32  0.005  0.001  0.016  0.021
   33  0.006  0.001  0.011  0.018
   34  0.005  0.001  0.015  0.020
   35  0.000  0.000  0.013  0.013
   36  0.000  0.003  0.016  0.019
   37  0.000  0.000  0.000  0.000
tot    0.054  0.016  0.766  0.836
 
band    21 # energy   -5.12595625 # occ.  2.00000000
 
ion      s      p      d    tot
    1  0.000  0.000  0.001  0.001
    2  0.000  0.000  0.007  0.007
    3  0.000  0.000  0.007  0.007
    4  0.000  0.000  0.007  0.007
    5  0.001  0.000  0.009  0.010
    6  0.000  0.000  0.007  0.007
    7  0.000  0.000  0.007  0.007
    8  0.000  0.000  0.007  0.007
    9  0.001  0.000  0.010  0.011
   10  0.000  0.000  0.016  0.016
   11  0.000  0.000  0.041  0.041
   12  0.000  0.000  0.016  0.016
   13  0.000  0.000  0.041  0.041
   14  0.000  0.000  0.041  0.041
   15  0.000  0.000  0.038  0.038
   16  0.000  0.000  0.016  0.016
   17  0.000  0.000  0.038  0.038
   18  0.000  0.000  0.038  0.038
   19  0.000  0.000  0.024  0.024
   20  0.001  0.001  0.058  0.059
   21  0.001  0.001  0.058  0.059
   22  0.001  0.000  0.032  0.034
   23  0.001  0.001  0.058  0.059
   24  0.001  0.000  0.032  0.034
   25  0.000  0.000  0.024  0.024
   26  0.000  0.000  0.024  0.024
   27  0.001  0.000  0.032  0.034
   28  0.014  0.000  0.004  0.018
   29  0.000  0.001  0.015  0.015
   30  0.000  0.001  0.015  0.015
   31  0.000  0.001  0.015  0.015
   32  0.000  0.001  0.015  0.015
   33  0.000  0.001  0.015  0.015
   34  0.000  0.001  0.015  0.015
   35  0.007  0.000  0.005  0.012
   36  0.006  0.003  0.004  0.013