PROCAR new format
# of k-points:   10         # of bands:  252         # of ions:   36

 k-point     1 :    0.00000000 0.00000000 0.00000000     weight = 0.01562500

band     1 # energy   -8.13196979 # occ.  2.00000000
 
ion      s      p      d    tot
    1  0.007  0.001  0.000  0.007
    2  0.006  0.001  0.000  0.007
    3  0.006  0.001  0.000  0.007
    4  0.006  0.001  0.000  0.007
    5  0.006  0.001  0.000  0.007
    6  0.006  0.001  0.000  0.007
    7  0.006  0.001  0.000  0.007
    8  0.006  0.001  0.000  0.007
    9  0.006  0.001  0.000  0.007
   10  0.026  0.000  0.000  0.026
   11  0.027  0.000  0.000  0.027
   12  0.026  0.000  0.000  0.026
   13  0.027  0.000  0.000  0.027
   14  0.027  0.000  0.000  0.027
   15  0.026  0.000  0.000  0.026
   16  0.026  0.000  0.000  0.026
   17  0.026  0.000  0.000  0.026
   18  0.026  0.000  0.000  0.026
   19  0.022  0.000  0.000  0.023
   20  0.028  0.000  0.000  0.028
   21  0.028  0.000  0.000  0.028
   22  0.024  0.000  0.000  0.025
   23  0.028  0.000  0.000  0.028
   24  0.024  0.000  0.000  0.025
   25  0.022  0.000  0.000  0.023
   26  0.022  0.000  0.000  0.023
   27  0.024  0.000  0.000  0.025
   28  0.005  0.000  0.000  0.005
   29  0.005  0.000  0.000  0.006
   30  0.005  0.000  0.000  0.006
   31  0.005  0.000  0.000  0.006
   32  0.005  0.000  0.000  0.006
   33  0.005  0.000  0.000  0.006
   34  0.005  0.000  0.000  0.006
   35  0.005  0.000  0.000  0.005
   36  0.010  0.001  0.000  0.011
tot    0.566  0.012  0.003  0.581
 
band     2 # energy   -6.99177176 # occ.  2.00000000
 
ion      s      p      d    tot
    1  0.016  0.000  0.001  0.018
    2  0.016  0.000  0.001  0.018
    3  0.016  0.000  0.001  0.018
    4  0.016  0.000  0.001  0.018
    5  0.016  0.000  0.001  0.017
    6  0.016  0.000  0.001  0.018
    7  0.016  0.000  0.001  0.018
    8  0.016  0.000  0.001  0.018
    9  0.017  0.000  0.001  0.018
   10  0.011  0.001  0.002  0.015
   11  0.010  0.001  0.002  0.014
   12  0.011  0.001  0.002  0.015
   13  0.010  0.001  0.002  0.014
   14  0.010  0.001  0.002  0.014
   15  0.011  0.001  0.002  0.015
   16  0.011  0.001  0.002  0.015
   17  0.011  0.001  0.002  0.015
   18  0.011  0.001  0.002  0.015
   19  0.011  0.001  0.003  0.014
   20  0.015  0.002  0.002  0.019
   21  0.015  0.002  0.002  0.019
   22  0.011  0.001  0.003  0.015
   23  0.015  0.002  0.002  0.019
   24  0.011  0.001  0.003  0.015
   25  0.011  0.001  0.003  0.014
   26  0.011  0.001  0.003  0.014
   27  0.011  0.001  0.003  0.015
   28  0.013  0.000  0.001  0.014
   29  0.016  0.001  0.001  0.018
   30  0.016  0.001  0.001  0.018
   31  0.016  0.001  0.001  0.018
   32  0.016  0.001  0.001  0.018
   33  0.016  0.001  0.001  0.018
   34  0.016  0.001  0.001  0.018
   35  0.013  0.000  0.001  0.015
   36  0.025  0.001  0.001  0.027
tot    0.503  0.032  0.063  0.598
 
band     3 # energy   -6.03984038 # occ.  2.00000000
 
ion      s      p      d    tot
    1  0.016  0.000  0.001  0.017
    2  0.005  0.000  0.006  0.011
    3  0.005  0.000  0.006  0.011
    4  0.005  0.000  0.006  0.011
    5  0.009  0.000  0.004  0.013
    6  0.005  0.000  0.006  0.011
    7  0.005  0.000  0.006  0.011
    8  0.005  0.000  0.006  0.011
    9  0.000  0.001  0.007  0.008
   10  0.001  0.000  0.019  0.020
   11  0.001  0.001  0.007  0.010
   12  0.001  0.000  0.019  0.020
   13  0.001  0.001  0.007  0.010
   14  0.001  0.001  0.007  0.010
   15  0.022  0.002  0.003  0.027
   16  0.001  0.000  0.019  0.020
   17  0.022  0.002  0.003  0.027
   18  0.022  0.002  0.003  0.027
   19  0.005  0.001  0.016  0.022
   20  0.006  0.001  0.024  0.031
   21  0.006  0.001  0.024  0.031
   22  0.024  0.003  0.003  0.030
   23  0.006  0.001  0.024  0.031
   24  0.024  0.003  0.003  0.030
   25  0.006  0.001  0.016  0.022
   26  0.005  0.001  0.016  0.022
   27  0.024  0.003  0.003  0.030
   28  0.002  0.000  0.009  0.011
   29  0.008  0.001  0.010  0.019
   30  0.008  0.001  0.010  0.019
   31  0.008  0.001  0.010  0.019
   32  0.008  0.001  0.010  0.019
   33  0.008  0.001  0.010  0.019
   34  0.008  0.001  0.010  0.019
   35  0.000  0.001  0.007  0.008
   36  0.044  0.001  0.002  0.047
tot    0.330  0.034  0.339  0.704
 
band     4 # energy   -6.00918642 # occ.  2.00000000
 
ion      s      p      d    tot
    1  0.008  0.000  0.020  0.029
    2  0.016  0.000  0.015  0.031
    3  0.016  0.000  0.015  0.031
    4  0.016  0.000  0.015  0.031
    5  0.010  0.000  0.014  0.023
    6  0.016  0.000  0.015  0.031
    7  0.016  0.000  0.015  0.031
    8  0.016  0.000  0.015  0.031
    9  0.035  0.000  0.010  0.045
   10  0.012  0.001  0.018  0.031
   11  0.015  0.002  0.014  0.030
   12  0.012  0.001  0.018  0.031
   13  0.015  0.002  0.014  0.030
   14  0.015  0.002  0.014  0.030
   15  0.000  0.001  0.020  0.021
   16  0.012  0.001  0.018  0.031
   17  0.000  0.001  0.020  0.021
   18  0.000  0.001  0.020  0.021
   19  0.000  0.001  0.006  0.007
   20  0.009  0.001  0.006  0.016
   21  0.009  0.001  0.006  0.016
   22  0.004  0.001  0.001  0.006
   23  0.009  0.001  0.006  0.016
   24  0.004  0.001  0.001  0.006
   25  0.000  0.001  0.007  0.007
   26  0.000  0.001  0.006  0.007
   27  0.004  0.001  0.001  0.006
   28  0.007  0.000  0.001  0.008
   29  0.005  0.000  0.004  0.009
   30  0.005  0.000  0.004  0.009
   31  0.005  0.000  0.004  0.009
   32  0.005  0.000  0.004  0.009
   33  0.005  0.000  0.004  0.009
   34  0.005  0.000  0.004  0.009
   35  0.011  0.000  0.002  0.012
   36  0.000  0.001  0.003  0.005
tot    0.314  0.023  0.362  0.699
 
band     5 # energy   -5.98809562 # occ.  2.00000000
 
ion      s      p      d    tot
    1  0.000  0.000  0.008  0.009
    2  0.004  0.001  0.004  0.008
    3  0.006  0.001  0.003  0.010
    4  0.004  0.001  0.004  0.008
    5  0.000  0.001  0.007  0.008
    6  0.000  0.000  0.003  0.003
    7  0.006  0.001  0.003  0.010
    8  0.000  0.000  0.003  0.003
    9  0.000  0.000  0.001  0.001
   10  0.000  0.000  0.035  0.035
   11  0.039  0.002  0.015  0.056
   12  0.026  0.002  0.013  0.040
   13  0.040  0.001  0.015  0.056
   14  0.000  0.003  0.027  0.030
   15  0.002  0.001  0.010  0.013
   16  0.025  0.002  0.013  0.040
   17  0.002  0.001  0.010  0.013
   18  0.000  0.004  0.004  0.007
   19  0.006  0.001  0.010  0.017
   20  0.000  0.002  0.032  0.034
   21  0.047  0.001  0.017  0.065
   22  0.014  0.001  0.010  0.025
   23  0.047  0.001  0.017  0.065
   24  0.000  0.000  0.027  0.028
   25  0.000  0.004  0.003  0.007
   26  0.006  0.001  0.010  0.017
   27  0.013  0.001  0.010  0.025
   28  0.000  0.000  0.001  0.001
   29  0.000  0.000  0.002  0.002
   30  0.005  0.001  0.003  0.009
   31  0.000  0.000  0.002  0.002
   32  0.005  0.001  0.004  0.010
   33  0.005  0.001  0.003  0.009
   34  0.005  0.001  0.004  0.009
   35  0.000  0.000  0.004  0.005
   36  0.000  0.003  0.007  0.010
tot    0.306  0.043  0.344  0.694
 
band     6 # energy   -5.98807100 # occ.  2.00000000
 
ion      s      p      d    tot
    1  0.000  0.000  0.008  0.009
    2  0.003  0.001  0.003  0.006
    3  0.001  0.000  0.003  0.004
    4  0.003  0.001  0.003  0.006
    5  0.000  0.001  0.007  0.008
    6  0.007  0.001  0.003  0.011
    7  0.001  0.000  0.003  0.004
    8  0.007  0.001  0.003  0.011
    9  0.000  0.000  0.001  0.001
   10  0.034  0.002  0.005  0.042
   11  0.014  0.003  0.023  0.039
   12  0.008  0.001  0.028  0.037
   13  0.013  0.003  0.023  0.039
   14  0.053  0.001  0.011  0.065
   15  0.001  0.003  0.006  0.009
   16  0.009  0.001  0.028  0.037
   17  0.000  0.003  0.006  0.009
   18  0.002  0.000  0.013  0.015
   19  0.002  0.003  0.005  0.010
   20  0.062  0.001  0.012  0.075
   21  0.015  0.002  0.027  0.044
   22  0.004  0.001  0.022  0.027
   23  0.016  0.002  0.027  0.045
   24  0.018  0.002  0.004  0.024
   25  0.008  0.000  0.013  0.021
   26  0.002  0.003  0.005  0.010
   27  0.005  0.001  0.021  0.027
   28  0.000  0.000  0.001  0.001
   29  0.006  0.001  0.004  0.012
   30  0.002  0.000  0.003  0.005
   31  0.006  0.001  0.004  0.012
   32  0.002  0.000  0.002  0.004
   33  0.002  0.001  0.003  0.005
   34  0.002  0.000  0.002  0.004
   35  0.000  0.000  0.004  0.005
   36  0.000  0.003  0.007  0.010
tot    0.306  0.043  0.344  0.694
 
band     7 # energy   -5.95197630 # occ.  2.00000000
 
ion      s      p      d    tot
    1  0.010  0.000  0.001  0.012
    2  0.002  0.000  0.004  0.006
    3  0.002  0.000  0.004  0.006
    4  0.002  0.000  0.004  0.006
    5  0.000  0.000  0.005  0.005
    6  0.002  0.000  0.004  0.006
    7  0.002  0.000  0.004  0.006
    8  0.002  0.000  0.004  0.006
    9  0.000  0.000  0.003  0.004
   10  0.001  0.000  0.020  0.021
   11  0.004  0.000  0.015  0.019
   12  0.001  0.000  0.020  0.021
   13  0.004  0.000  0.015  0.019
   14  0.004  0.000  0.015  0.019
   15  0.011  0.001  0.010  0.022
   16  0.001  0.000  0.020  0.021
   17  0.011  0.001  0.010  0.022
   18  0.011  0.001  0.010  0.022
   19  0.014  0.001  0.018  0.033
   20  0.011  0.000  0.032  0.043
   21  0.011  0.000  0.032  0.043
   22  0.000  0.000  0.025  0.025
   23  0.011  0.000  0.032  0.043
   24  0.000  0.000  0.025  0.025
   25  0.014  0.001  0.018  0.033
   26  0.014  0.001  0.018  0.033
   27  0.000  0.000  0.025  0.025
   28  0.004  0.000  0.009  0.013
   29  0.011  0.000  0.012  0.023
   30  0.011  0.000  0.012  0.023
   31  0.011  0.000  0.012  0.023
   32  0.011  0.000  0.012  0.023
   33  0.011  0.000  0.012  0.023
   34  0.011  0.000  0.012  0.023
   35  0.020  0.000  0.006  0.027
   36  0.005  0.001  0.014  0.020
tot    0.239  0.011  0.494  0.745
 
band     8 # energy   -5.92714132 # occ.  2.00000000
 
ion      s      p      d    tot
    1  0.006  0.001  0.002  0.009
    2  0.000  0.001  0.006  0.007
    3  0.000  0.001  0.006  0.007
    4  0.000  0.001  0.006  0.007
    5  0.019  0.002  0.000  0.021
    6  0.000  0.001  0.006  0.007
    7  0.000  0.001  0.006  0.007
    8  0.000  0.001  0.006  0.007
    9  0.000  0.000  0.003  0.003
   10  0.024  0.003  0.001  0.028
   11  0.019  0.001  0.023  0.043
   12  0.024  0.003  0.001  0.028
   13  0.019  0.001  0.023  0.043
   14  0.019  0.001  0.023  0.043
   15  0.001  0.001  0.025  0.027
   16  0.024  0.003  0.001  0.028
   17  0.001  0.001  0.025  0.027
   18  0.001  0.001  0.025  0.027
   19  0.016  0.002  0.010  0.028
   20  0.009  0.003  0.014  0.026
   21  0.009  0.003  0.015  0.026
   22  0.009  0.000  0.025  0.034
   23  0.009  0.003  0.015  0.026
   24  0.009  0.000  0.025  0.034
   25  0.017  0.002  0.010  0.028
   26  0.016  0.002  0.010  0.028
   27  0.009  0.000  0.025  0.034
   28  0.017  0.001  0.000  0.018
   29  0.001  0.000  0.005  0.006
   30  0.001  0.000  0.005  0.006
   31  0.001  0.000  0.005  0.006
   32  0.001  0.000  0.005  0.006
   33  0.001  0.000  0.005  0.006
   34  0.001  0.000  0.005  0.006
   35  0.001  0.001  0.006  0.007
   36  0.000  0.000  0.000  0.000
tot    0.290  0.037  0.372  0.699
 
band     9 # energy   -5.91762554 # occ.  2.00000000
 
ion      s      p      d    tot
    1  0.000  0.001  0.004  0.005
    2  0.005  0.001  0.004  0.010
    3  0.008  0.001  0.004  0.013
    4  0.005  0.001  0.004  0.010
    5  0.000  0.000  0.004  0.004
    6  0.000  0.000  0.003  0.004
    7  0.008  0.001  0.004  0.013
    8  0.000  0.000  0.003  0.004
    9  0.000  0.001  0.012  0.013
   10  0.028  0.000  0.016  0.045
   11  0.002  0.002  0.020  0.023
   12  0.007  0.004  0.007  0.018
   13  0.002  0.002  0.020  0.023
   14  0.007  0.001  0.008  0.016
   15  0.016  0.001  0.035  0.052
   16  0.007  0.003  0.007  0.018
   17  0.015  0.001  0.035  0.052
   18  0.063  0.002  0.005  0.070
   19  0.010  0.001  0.027  0.038
   20  0.001  0.001  0.012  0.014
   21  0.000  0.002  0.011  0.013
   22  0.008  0.003  0.014  0.025
   23  0.000  0.002  0.011  0.013
   24  0.033  0.001  0.012  0.046
   25  0.040  0.002  0.003  0.046
   26  0.010  0.001  0.027  0.038
   27  0.009  0.003  0.014  0.026
   28  0.000  0.000  0.006  0.007
   29  0.000  0.000  0.002  0.002
   30  0.003  0.001  0.002  0.005
   31  0.000  0.000  0.002  0.002
   32  0.004  0.001  0.003  0.007
   33  0.003  0.000  0.002  0.005
   34  0.004  0.001  0.003  0.007
   35  0.000  0.001  0.004  0.004
   36  0.000  0.000  0.001  0.001
tot    0.298  0.041  0.353  0.692
 
band    10 # energy   -5.91759396 # occ.  2.00000000
 
ion      s      p      d    tot
    1  0.000  0.001  0.004  0.005
    2  0.004  0.001  0.003  0.008
    3  0.001  0.000  0.004  0.005
    4  0.004  0.001  0.003  0.008
    5  0.000  0.000  0.004  0.004
    6  0.008  0.001  0.004  0.014
    7  0.001  0.000  0.004  0.005
    8  0.008  0.001  0.004  0.014
    9  0.000  0.001  0.012  0.013
   10  0.000  0.005  0.004  0.009
   11  0.005  0.001  0.012  0.019
   12  0.022  0.001  0.013  0.036
   13  0.005  0.001  0.012  0.018
   14  0.000  0.002  0.023  0.025
   15  0.047  0.001  0.015  0.064
   16  0.021  0.001  0.013  0.036
   17  0.048  0.001  0.015  0.064
   18  0.000  0.001  0.045  0.046
   19  0.030  0.002  0.011  0.043
   20  0.000  0.002  0.011  0.013
   21  0.001  0.001  0.012  0.014
   22  0.025  0.001  0.013  0.039
   23  0.001  0.001  0.012  0.014
   24  0.000  0.004  0.015  0.019
   25  0.000  0.000  0.035  0.035
   26  0.031  0.002  0.011  0.043
   27  0.024  0.001  0.013  0.039
   28  0.000  0.000  0.006  0.007
   29  0.004  0.001  0.002  0.007
   30  0.002  0.000  0.002  0.005
   31  0.004  0.001  0.002  0.007
   32  0.001  0.000  0.001  0.002
   33  0.002  0.000  0.002  0.005
   34  0.001  0.000  0.001  0.002
   35  0.000  0.001  0.004  0.004
   36  0.000  0.000  0.001  0.001
tot    0.298  0.041  0.353  0.692
 
band    11 # energy   -5.50991709 # occ.  2.00000000
 
ion      s      p      d    tot
    1  0.014  0.001  0.000  0.015
    2  0.000  0.001  0.006  0.007
    3  0.000  0.001  0.006  0.007
    4  0.000  0.001  0.006  0.007
    5  0.008  0.001  0.002  0.010
    6  0.000  0.001  0.006  0.007
    7  0.000  0.001  0.006  0.007
    8  0.000  0.001  0.006  0.007
    9  0.001  0.000  0.001  0.002
   10  0.003  0.001  0.017  0.021
   11  0.010  0.001  0.012  0.023
   12  0.003  0.001  0.017  0.021
   13  0.010  0.001  0.012  0.023
   14  0.010  0.001  0.013  0.023
   15  0.002  0.000  0.038  0.040
   16  0.003  0.001  0.017  0.021
   17  0.002  0.000  0.038  0.040
   18  0.002  0.000  0.038  0.040
   19  0.012  0.002  0.006  0.020
   20  0.002  0.001  0.034  0.037
   21  0.002  0.001  0.034  0.037
   22  0.006  0.000  0.042  0.048
   23  0.002  0.001  0.034  0.037
   24  0.006  0.000  0.042  0.048
   25  0.013  0.002  0.006  0.020
   26  0.012  0.002  0.006  0.020
   27  0.006  0.000  0.042  0.048
   28  0.020  0.002  0.000  0.023
   29  0.000  0.001  0.011  0.012
   30  0.000  0.001  0.011  0.012
   31  0.000  0.001  0.011  0.012
   32  0.000  0.001  0.011  0.012
   33  0.000  0.001  0.011  0.012
   34  0.000  0.001  0.011  0.012
   35  0.000  0.000  0.003  0.003
   36  0.016  0.002  0.000  0.017
tot    0.161  0.033  0.555  0.749
 
band    12 # energy   -5.49733229 # occ.  2.00000000
 
ion      s      p      d    tot
    1  0.000  0.001  0.004  0.004
    2  0.001  0.001  0.005  0.007
    3  0.009  0.001  0.004  0.015
    4  0.001  0.001  0.005  0.007
    5  0.000  0.001  0.010  0.012
    6  0.004  0.001  0.004  0.009
    7  0.009  0.001  0.004  0.015
    8  0.004  0.001  0.004  0.009
    9  0.000  0.000  0.009  0.010
   10  0.000  0.001  0.047  0.048
   11  0.016  0.001  0.020  0.037
   12  0.006  0.002  0.019  0.026
   13  0.016  0.001  0.020  0.037
   14  0.000  0.000  0.053  0.053
   15  0.002  0.000  0.020  0.022
   16  0.006  0.002  0.019  0.026
   17  0.002  0.000  0.020  0.022
   18  0.000  0.001  0.012  0.013
   19  0.004  0.000  0.018  0.022
   20  0.000  0.000  0.074  0.074
   21  0.017  0.001  0.023  0.041
   22  0.004  0.001  0.018  0.024
   23  0.017  0.001  0.024  0.041
   24  0.000  0.001  0.037  0.038
   25  0.000  0.001  0.009  0.010
   26  0.004  0.000  0.018  0.022
   27  0.004  0.001  0.019  0.024
   28  0.000  0.000  0.008  0.008
   29  0.003  0.001  0.005  0.009
   30  0.009  0.001  0.005  0.015
   31  0.003  0.001  0.005  0.009
   32  0.002  0.001  0.004  0.006
   33  0.009  0.001  0.005  0.015
   34  0.001  0.001  0.004  0.006
   35  0.000  0.000  0.003  0.003
   36  0.000  0.003  0.007  0.010
tot    0.155  0.031  0.562  0.749
 
band    13 # energy   -5.49732568 # occ.  2.00000000
 
ion      s      p      d    tot
    1  0.000  0.001  0.004  0.004
    2  0.009  0.001  0.004  0.014
    3  0.000  0.000  0.004  0.005
    4  0.009  0.001  0.004  0.014
    5  0.000  0.001  0.010  0.012
    6  0.005  0.001  0.005  0.011
    7  0.000  0.000  0.004  0.005
    8  0.005  0.001  0.005  0.011
    9  0.000  0.000  0.009  0.010
   10  0.008  0.002  0.010  0.019
   11  0.005  0.000  0.042  0.048
   12  0.002  0.001  0.038  0.040
   13  0.005  0.000  0.042  0.048
   14  0.021  0.001  0.010  0.032
   15  0.001  0.001  0.015  0.016
   16  0.002  0.001  0.037  0.040
   17  0.001  0.001  0.015  0.016
   18  0.003  0.000  0.022  0.025
   19  0.001  0.001  0.012  0.014
   20  0.023  0.001  0.006  0.030
   21  0.006  0.000  0.057  0.063
   22  0.001  0.001  0.031  0.033
   23  0.006  0.000  0.057  0.063
   24  0.006  0.001  0.012  0.019
   25  0.005  0.000  0.021  0.026
   26  0.001  0.001  0.012  0.014
   27  0.001  0.001  0.031  0.033
   28  0.000  0.000  0.008  0.008
   29  0.006  0.001  0.004  0.011
   30  0.000  0.000  0.004  0.005
   31  0.006  0.001  0.004  0.011
   32  0.008  0.001  0.005  0.014
   33  0.000  0.000  0.004  0.005
   34  0.008  0.001  0.005  0.014
   35  0.000  0.000  0.003  0.003
   36  0.000  0.003  0.007  0.010
tot    0.155  0.031  0.563  0.749
 
band    14 # energy   -5.48150811 # occ.  2.00000000
 
ion      s      p      d    tot
    1  0.002  0.001  0.003  0.006
    2  0.000  0.001  0.009  0.010
    3  0.000  0.001  0.009  0.010
    4  0.000  0.001  0.009  0.010
    5  0.010  0.001  0.000  0.011
    6  0.000  0.001  0.009  0.010
    7  0.000  0.001  0.009  0.010
    8  0.000  0.001  0.009  0.010
    9  0.021  0.002  0.001  0.024
   10  0.007  0.001  0.036  0.044
   11  0.000  0.000  0.038  0.039
   12  0.007  0.001  0.036  0.044
   13  0.000  0.000  0.038  0.039
   14  0.000  0.000  0.038  0.039
   15  0.012  0.002  0.007  0.022
   16  0.007  0.001  0.036  0.044
   17  0.012  0.002  0.007  0.022
   18  0.012  0.002  0.007  0.022
   19  0.000  0.000  0.031  0.031
   20  0.008  0.002  0.031  0.041
   21  0.008  0.002  0.031  0.041
   22  0.007  0.001  0.010  0.019
   23  0.008  0.002  0.031  0.041
   24  0.007  0.001  0.010  0.019
   25  0.000  0.000  0.031  0.031
   26  0.000  0.000  0.031  0.031
   27  0.007  0.001  0.010  0.019
   28  0.001  0.000  0.000  0.001
   29  0.000  0.000  0.005  0.006
   30  0.000  0.000  0.005  0.006
   31  0.000  0.000  0.005  0.006
   32  0.000  0.000  0.005  0.006
   33  0.000  0.000  0.005  0.006
   34  0.000  0.000  0.005  0.006
   35  0.015  0.001  0.001  0.017
   36  0.009  0.002  0.002  0.013
tot    0.165  0.033  0.553  0.751
 
band    15 # energy   -5.43847720 # occ.  2.00000000
 
ion      s      p      d    tot
    1  0.000  0.001  0.015  0.016
    2  0.000  0.001  0.005  0.006
    3  0.009  0.001  0.005  0.015
    4  0.000  0.001  0.005  0.006
    5  0.000  0.000  0.006  0.006
    6  0.005  0.001  0.005  0.011
    7  0.009  0.001  0.005  0.015
    8  0.006  0.001  0.005  0.011
    9  0.000  0.001  0.006  0.007
   10  0.011  0.000  0.018  0.029
   11  0.000  0.001  0.017  0.018
   12  0.003  0.000  0.030  0.034
   13  0.000  0.001  0.017  0.018
   14  0.000  0.001  0.021  0.022
   15  0.003  0.001  0.048  0.051
   16  0.003  0.000  0.031  0.034
   17  0.003  0.001  0.046  0.050
   18  0.013  0.002  0.007  0.022
   19  0.005  0.000  0.052  0.057
   20  0.000  0.000  0.023  0.024
   21  0.000  0.001  0.022  0.023
   22  0.006  0.001  0.026  0.032
   23  0.000  0.001  0.022  0.023
   24  0.022  0.001  0.018  0.041
   25  0.020  0.001  0.003  0.025
   26  0.005  0.001  0.051  0.057
   27  0.005  0.001  0.026  0.032
   28  0.000  0.001  0.006  0.006
   29  0.002  0.000  0.004  0.006
   30  0.007  0.001  0.003  0.010
   31  0.002  0.000  0.004  0.006
   32  0.002  0.001  0.005  0.007
   33  0.007  0.001  0.003  0.010
   34  0.002  0.001  0.005  0.007
   35  0.000  0.001  0.009  0.010
   36  0.000  0.000  0.003  0.003
tot    0.149  0.028  0.572  0.750
 
band    16 # energy   -5.43847515 # occ.  2.00000000
 
ion      s      p      d    tot
    1  0.000  0.001  0.015  0.016
    2  0.009  0.001  0.004  0.015
    3  0.001  0.000  0.005  0.006
    4  0.009  0.001  0.004  0.015
    5  0.000  0.000  0.006  0.006
    6  0.004  0.001  0.005  0.011
    7  0.001  0.000  0.005  0.006
    8  0.004  0.001  0.005  0.010
    9  0.000  0.001  0.006  0.007
   10  0.000  0.001  0.035  0.035
   11  0.000  0.001  0.020  0.021
   12  0.008  0.000  0.022  0.031
   13  0.000  0.001  0.020  0.021
   14  0.000  0.001  0.016  0.017
   15  0.010  0.002  0.020  0.031
   16  0.008  0.000  0.022  0.030
   17  0.009  0.002  0.021  0.032
   18  0.000  0.000  0.061  0.061
   19  0.016  0.001  0.019  0.035
   20  0.000  0.002  0.021  0.023
   21  0.000  0.001  0.023  0.023
   22  0.016  0.001  0.021  0.038
   23  0.000  0.001  0.023  0.023
   24  0.000  0.001  0.028  0.029
   25  0.000  0.000  0.067  0.068
   26  0.015  0.001  0.020  0.036
   27  0.017  0.001  0.021  0.038
   28  0.000  0.001  0.006  0.007
   29  0.005  0.001  0.004  0.010
   30  0.000  0.000  0.005  0.006
   31  0.005  0.001  0.004  0.010
   32  0.005  0.001  0.003  0.009
   33  0.000  0.000  0.005  0.006
   34  0.005  0.001  0.003  0.009
   35  0.000  0.001  0.009  0.010
   36  0.000  0.000  0.003  0.003
tot    0.149  0.028  0.572  0.750
 
band    17 # energy   -5.14305822 # occ.  2.00000000
 
ion      s      p      d    tot
    1  0.012  0.000  0.009  0.021
    2  0.000  0.001  0.021  0.022
    3  0.000  0.001  0.021  0.022
    4  0.000  0.001  0.021  0.022
    5  0.002  0.000  0.001  0.003
    6  0.000  0.001  0.021  0.022
    7  0.000  0.001  0.021  0.022
    8  0.000  0.001  0.021  0.022
    9  0.025  0.001  0.004  0.030
   10  0.001  0.000  0.023  0.024
   11  0.000  0.000  0.016  0.016
   12  0.001  0.000  0.023  0.024
   13  0.000  0.000  0.016  0.016
   14  0.000  0.000  0.016  0.016
   15  0.000  0.000  0.031  0.032
   16  0.001  0.000  0.023  0.024
   17  0.000  0.000  0.031  0.032
   18  0.000  0.000  0.031  0.032
   19  0.000  0.000  0.027  0.027
   20  0.000  0.000  0.032  0.032
   21  0.000  0.000  0.032  0.032
   22  0.000  0.000  0.023  0.023
   23  0.000  0.000  0.032  0.032
   24  0.000  0.000  0.023  0.023
   25  0.000  0.000  0.027  0.027
   26  0.000  0.000  0.027  0.027
   27  0.000  0.000  0.023  0.023
   28  0.003  0.000  0.010  0.014
   29  0.000  0.001  0.021  0.022
   30  0.000  0.001  0.021  0.022
   31  0.000  0.001  0.021  0.022
   32  0.000  0.001  0.021  0.022
   33  0.000  0.001  0.021  0.022
   34  0.000  0.001  0.021  0.022
   35  0.010  0.001  0.000  0.011
   36  0.018  0.000  0.005  0.024
tot    0.074  0.016  0.731  0.822
 
band    18 # energy   -5.12609077 # occ.  2.00000000
 
ion      s      p      d    tot
    1  0.000  0.000  0.026  0.026
    2  0.009  0.000  0.013  0.022
    3  0.008  0.001  0.008  0.017
    4  0.009  0.000  0.013  0.022
    5  0.000  0.001  0.021  0.022
    6  0.000  0.000  0.012  0.013
    7  0.008  0.001  0.008  0.017
    8  0.000  0.000  0.012  0.013
    9  0.000  0.001  0.004  0.005
   10  0.000  0.000  0.011  0.011
   11  0.000  0.001  0.048  0.049
   12  0.000  0.000  0.020  0.020
   13  0.000  0.001  0.048  0.049
   14  0.000  0.000  0.052  0.052
   15  0.000  0.000  0.023  0.023
   16  0.000  0.000  0.020  0.020
   17  0.000  0.000  0.022  0.023
   18  0.000  0.000  0.013  0.013
   19  0.000  0.000  0.011  0.012
   20  0.000  0.000  0.034  0.034
   21  0.001  0.000  0.066  0.067
   22  0.001  0.000  0.021  0.022
   23  0.001  0.000  0.066  0.067
   24  0.000  0.000  0.027  0.027
   25  0.000  0.000  0.006  0.006
   26  0.000  0.000  0.011  0.012
   27  0.001  0.000  0.021  0.022
   28  0.000  0.001  0.005  0.005
   29  0.000  0.000  0.006  0.007
   30  0.008  0.001  0.012  0.022
   31  0.000  0.000  0.006  0.007
   32  0.006  0.001  0.016  0.023
   33  0.008  0.001  0.012  0.022
   34  0.006  0.001  0.016  0.023
   35  0.000  0.000  0.021  0.021
   36  0.000  0.003  0.010  0.013
tot    0.068  0.017  0.741  0.826
 
band    19 # energy   -5.12608046 # occ.  2.00000000
 
ion      s      p      d    tot
    1  0.000  0.000  0.026  0.026
    2  0.003  0.001  0.009  0.013
    3  0.003  0.000  0.014  0.017
    4  0.003  0.001  0.009  0.013
    5  0.000  0.001  0.021  0.022
    6  0.011  0.001  0.010  0.022
    7  0.003  0.000  0.014  0.017
    8  0.011  0.001  0.010  0.022
    9  0.000  0.001  0.004  0.005
   10  0.000  0.000  0.023  0.023
   11  0.000  0.000  0.050  0.051
   12  0.000  0.000  0.014  0.014
   13  0.000  0.000  0.050  0.051
   14  0.001  0.001  0.047  0.048
   15  0.000  0.000  0.016  0.016
   16  0.000  0.000  0.014  0.014
   17  0.000  0.000  0.016  0.017
   18  0.000  0.000  0.026  0.026
   19  0.000  0.000  0.008  0.008
   20  0.001  0.000  0.077  0.078
   21  0.000  0.000  0.044  0.045
   22  0.000  0.000  0.025  0.025
   23  0.000  0.000  0.044  0.045
   24  0.001  0.000  0.019  0.020
   25  0.000  0.000  0.013  0.013
   26  0.000  0.000  0.008  0.008
   27  0.000  0.000  0.025  0.025
   28  0.000  0.001  0.005  0.005
   29  0.010  0.001  0.017  0.027
   30  0.001  0.000  0.011  0.012
   31  0.010  0.001  0.017  0.027
   32  0.004  0.000  0.007  0.011
   33  0.001  0.000  0.011  0.012
   34  0.004  0.000  0.007  0.011
   35  0.000  0.000  0.021  0.021
   36  0.000  0.003  0.010  0.013
tot    0.068  0.017  0.741  0.826
 
band    20 # energy   -5.09657949 # occ.  2.00000000
 
ion      s      p      d    tot
    1  0.010  0.001  0.000  0.011
    2  0.000  0.001  0.014  0.014
    3  0.000  0.001  0.014  0.014
    4  0.000  0.001  0.014  0.014
    5  0.011  0.000  0.012  0.023
    6  0.000  0.001  0.014  0.014
    7  0.000  0.001  0.014  0.014
    8  0.000  0.001  0.014  0.014
    9  0.000  0.000  0.008  0.008
   10  0.000  0.000  0.023  0.023
   11  0.000  0.000  0.033  0.033
   12  0.000  0.000  0.023  0.023
   13  0.000  0.000  0.033  0.033
   14  0.000  0.000  0.033  0.033
   15  0.000  0.000  0.032  0.033
   16  0.000  0.000  0.023  0.023
   17  0.000  0.000  0.032  0.033
   18  0.000  0.000  0.032  0.033
   19  0.000  0.000  0.024  0.024
   20  0.000  0.000  0.028  0.028
   21  0.000  0.000  0.028  0.028
   22  0.001  0.000  0.029  0.030
   23  0.000  0.000  0.028  0.028
   24  0.001  0.000  0.029  0.030
   25  0.000  0.000  0.024  0.024
   26  0.000  0.000  0.024  0.024
   27  0.001  0.000  0.029  0.030
   28  0.020  0.001  0.003  0.023
   29  0.000  0.000  0.021  0.022
   30  0.000  0.000  0.021  0.022
   31  0.000  0.000  0.021  0.022
   32  0.000  0.000  0.021  0.022
   33  0.000  0.000  0.021  0.022
   34  0.000  0.000  0.021  0.022
   35  0.014  0.000  0.007  0.021
   36  0.001  0.001  0.003  0.004
tot    0.061  0.012  0.751  0.825
 
band    21 # energy   -5.07218602 # occ.  2.00000000
 
ion      s      p      d    tot
    1  0.000  0.002  0.011  0.013
    2  0.014  0.001  0.020  0.035
    3  0.011  0.001  0.014  0.025
    4  0.014  0.001  0.020  0.035
    5  0.000  0.001  0.024  0.025
    6  0.000  0.001  0.017  0.018
    7  0.011  0.001  0.014  0.025
    8  0.000  0.001  0.017  0.018
    9  0.000  0.000  0.047  0.047
   10  0.000  0.001  0.045  0.046
   11  0.000  0.000  0.015  0.015
   12  0.000  0.000  0.033  0.033
   13  0.000  0.000  0.015  0.015
   14  0.000  0.000  0.016  0.017
   15  0.000  0.001  0.035  0.036
   16  0.000  0.000  0.033  0.033
   17  0.000  0.001  0.035  0.036
   18  0.000  0.001  0.032  0.033
   19  0.000  0.000  0.018  0.018
   20  0.000  0.000  0.013  0.013
   21  0.000  0.000  0.013  0.013
   22  0.001  0.000  0.015  0.016
   23  0.000  0.000  0.013  0.013
   24  0.003  0.000  0.027  0.030
   25  0.000  0.000  0.025  0.025
   26  0.000  0.000  0.018  0.018
   27  0.001  0.000  0.015  0.016
   28  0.000  0.000  0.021  0.021
   29  0.000  0.000  0.011  0.011
   30  0.008  0.001  0.006  0.015
   31  0.000  0.000  0.011  0.011
   32  0.007  0.001  0.015  0.023
   33  0.008  0.001  0.006  0.015
   34  0.007  0.001  0.015  0.023
   35  0.000  0.001  0.005  0.006
   36  0.000  0.000  0.012  0.012
tot    0.086  0.018  0.702  0.807
 
band    22 # energy   -5.07216443 # occ.  2.00000000
 
ion      s      p      d    tot
    1  0.000  0.002  0.011  0.013
    2  0.003  0.001  0.014  0.017
    3  0.006  0.001  0.021  0.027
    4  0.003  0.001  0.014  0.017
    5  0.000  0.001  0.024  0.025
    6  0.016  0.001  0.017  0.034
    7  0.006  0.001  0.021  0.027
    8  0.016  0.001  0.017  0.034
    9  0.000  0.000  0.047  0.047
   10  0.000  0.000  0.028  0.028
   11  0.000  0.000  0.016  0.016
   12  0.000  0.001  0.041  0.042
   13  0.000  0.000  0.016  0.016
   14  0.000  0.000  0.015  0.015
   15  0.000  0.001  0.033  0.034
   16  0.000  0.001  0.041  0.042