PROCAR new format
# of k-points:   10         # of bands:  252         # of ions:   37

 k-point     1 :    0.00000000 0.00000000 0.00000000     weight = 0.01562500

band     1 # energy  -11.49096259 # occ.  2.00000000
 
ion      s      p      d    tot
    1  0.000  0.000  0.000  0.000
    2  0.000  0.000  0.000  0.000
    3  0.000  0.000  0.000  0.000
    4  0.000  0.000  0.000  0.000
    5  0.000  0.000  0.000  0.000
    6  0.000  0.000  0.000  0.000
    7  0.000  0.000  0.000  0.000
    8  0.000  0.000  0.000  0.000
    9  0.000  0.000  0.000  0.000
   10  0.000  0.000  0.000  0.000
   11  0.000  0.000  0.000  0.000
   12  0.000  0.000  0.000  0.000
   13  0.000  0.000  0.000  0.000
   14  0.000  0.000  0.000  0.000
   15  0.000  0.000  0.000  0.000
   16  0.000  0.000  0.000  0.000
   17  0.000  0.000  0.000  0.000
   18  0.000  0.000  0.000  0.000
   19  0.000  0.000  0.000  0.000
   20  0.002  0.001  0.001  0.004
   21  0.002  0.001  0.001  0.004
   22  0.000  0.000  0.000  0.000
   23  0.002  0.001  0.001  0.004
   24  0.000  0.000  0.000  0.000
   25  0.000  0.000  0.000  0.000
   26  0.000  0.000  0.000  0.000
   27  0.000  0.000  0.000  0.000
   28  0.000  0.000  0.000  0.000
   29  0.001  0.000  0.000  0.001
   30  0.001  0.000  0.000  0.001
   31  0.001  0.000  0.000  0.001
   32  0.001  0.000  0.000  0.001
   33  0.001  0.000  0.000  0.001
   34  0.001  0.000  0.000  0.001
   35  0.000  0.000  0.000  0.000
   36  0.137  0.056  0.243  0.435
   37  0.373  0.042  0.000  0.415
tot    0.523  0.103  0.246  0.871
 
band     2 # energy   -9.19981822 # occ.  2.00000000
 
ion      s      p      d    tot
    1  0.006  0.001  0.000  0.007
    2  0.006  0.001  0.000  0.007
    3  0.006  0.001  0.000  0.007
    4  0.006  0.001  0.000  0.007
    5  0.006  0.001  0.000  0.007
    6  0.006  0.001  0.000  0.007
    7  0.006  0.001  0.000  0.007
    8  0.006  0.001  0.000  0.007
    9  0.006  0.001  0.000  0.007
   10  0.023  0.000  0.000  0.024
   11  0.023  0.000  0.000  0.024
   12  0.023  0.000  0.000  0.024
   13  0.023  0.000  0.000  0.024
   14  0.023  0.000  0.000  0.024
   15  0.023  0.000  0.000  0.024
   16  0.023  0.000  0.000  0.024
   17  0.023  0.000  0.000  0.024
   18  0.023  0.000  0.000  0.024
   19  0.025  0.000  0.000  0.025
   20  0.025  0.000  0.000  0.025
   21  0.025  0.000  0.000  0.025
   22  0.025  0.000  0.000  0.025
   23  0.025  0.000  0.000  0.025
   24  0.025  0.000  0.000  0.025
   25  0.025  0.000  0.000  0.025
   26  0.025  0.000  0.000  0.025
   27  0.025  0.000  0.000  0.025
   28  0.007  0.001  0.000  0.008
   29  0.007  0.001  0.000  0.008
   30  0.007  0.001  0.000  0.008
   31  0.007  0.001  0.000  0.008
   32  0.007  0.001  0.000  0.008
   33  0.007  0.001  0.000  0.008
   34  0.007  0.001  0.000  0.008
   35  0.007  0.001  0.000  0.008
   36  0.006  0.006  0.010  0.022
   37  0.008  0.000  0.000  0.008
tot    0.560  0.022  0.011  0.593
 
band     3 # energy   -7.97560808 # occ.  2.00000000
 
ion      s      p      d    tot
    1  0.017  0.001  0.000  0.018
    2  0.016  0.001  0.000  0.018
    3  0.016  0.001  0.000  0.018
    4  0.016  0.001  0.000  0.018
    5  0.016  0.001  0.000  0.017
    6  0.016  0.001  0.000  0.018
    7  0.016  0.001  0.000  0.018
    8  0.016  0.001  0.000  0.018
    9  0.016  0.001  0.000  0.018
   10  0.011  0.002  0.000  0.014
   11  0.011  0.002  0.001  0.013
   12  0.011  0.002  0.000  0.014
   13  0.011  0.002  0.001  0.013
   14  0.011  0.002  0.001  0.013
   15  0.011  0.002  0.001  0.013
   16  0.011  0.002  0.000  0.014
   17  0.011  0.002  0.001  0.013
   18  0.011  0.002  0.001  0.013
   19  0.007  0.002  0.000  0.010
   20  0.007  0.003  0.000  0.009
   21  0.007  0.003  0.000  0.009
   22  0.007  0.002  0.000  0.010
   23  0.007  0.003  0.000  0.009
   24  0.007  0.002  0.000  0.010
   25  0.007  0.002  0.000  0.010
   26  0.007  0.002  0.000  0.010
   27  0.007  0.002  0.000  0.010
   28  0.017  0.001  0.001  0.018
   29  0.020  0.001  0.001  0.022
   30  0.020  0.001  0.001  0.022
   31  0.020  0.001  0.001  0.022
   32  0.020  0.001  0.001  0.022
   33  0.020  0.001  0.001  0.022
   34  0.020  0.001  0.001  0.022
   35  0.017  0.001  0.001  0.018
   36  0.030  0.005  0.036  0.071
   37  0.005  0.001  0.000  0.005
tot    0.499  0.056  0.055  0.610
 
band     4 # energy   -6.57033056 # occ.  2.00000000
 
ion      s      p      d    tot
    1  0.013  0.000  0.003  0.016
    2  0.014  0.000  0.003  0.017
    3  0.014  0.000  0.003  0.017
    4  0.014  0.000  0.003  0.017
    5  0.013  0.000  0.003  0.016
    6  0.014  0.000  0.003  0.017
    7  0.014  0.000  0.003  0.017
    8  0.014  0.000  0.003  0.017
    9  0.015  0.000  0.003  0.018
   10  0.001  0.004  0.000  0.005
   11  0.001  0.003  0.000  0.004
   12  0.001  0.004  0.000  0.005
   13  0.001  0.003  0.000  0.004
   14  0.001  0.003  0.000  0.004
   15  0.001  0.003  0.000  0.004
   16  0.001  0.004  0.000  0.005
   17  0.001  0.003  0.000  0.004
   18  0.001  0.003  0.000  0.004
   19  0.010  0.001  0.004  0.015
   20  0.010  0.002  0.009  0.020
   21  0.010  0.002  0.009  0.020
   22  0.007  0.001  0.004  0.012
   23  0.010  0.002  0.009  0.020
   24  0.007  0.001  0.004  0.012
   25  0.010  0.001  0.004  0.015
   26  0.010  0.001  0.004  0.015
   27  0.007  0.001  0.004  0.012
   28  0.005  0.000  0.005  0.010
   29  0.014  0.001  0.010  0.024
   30  0.014  0.001  0.010  0.024
   31  0.014  0.001  0.010  0.024
   32  0.014  0.001  0.010  0.024
   33  0.014  0.001  0.010  0.024
   34  0.014  0.001  0.010  0.024
   35  0.006  0.000  0.004  0.011
   36  0.042  0.001  0.144  0.188
   37  0.002  0.005  0.000  0.007
tot    0.343  0.058  0.289  0.690
 
band     5 # energy   -6.43324666 # occ.  2.00000000
 
ion      s      p      d    tot
    1  0.000  0.001  0.002  0.003
    2  0.003  0.001  0.001  0.005
    3  0.000  0.000  0.001  0.001
    4  0.003  0.001  0.001  0.005
    5  0.000  0.001  0.001  0.003
    6  0.002  0.001  0.001  0.003
    7  0.000  0.000  0.001  0.001
    8  0.002  0.001  0.001  0.003
    9  0.000  0.000  0.001  0.001
   10  0.025  0.003  0.002  0.031
   11  0.005  0.005  0.004  0.014
   12  0.006  0.001  0.005  0.012
   13  0.005  0.005  0.004  0.014
   14  0.020  0.001  0.003  0.024
   15  0.000  0.003  0.003  0.006
   16  0.007  0.001  0.005  0.013
   17  0.000  0.003  0.003  0.006
   18  0.000  0.001  0.002  0.003
   19  0.002  0.007  0.001  0.011
   20  0.069  0.002  0.012  0.083
   21  0.017  0.004  0.015  0.035
   22  0.004  0.002  0.008  0.014
   23  0.018  0.004  0.015  0.037
   24  0.015  0.004  0.002  0.021
   25  0.009  0.000  0.004  0.014
   26  0.002  0.008  0.001  0.011
   27  0.004  0.002  0.008  0.014
   28  0.000  0.001  0.002  0.004
   29  0.009  0.004  0.007  0.020
   30  0.001  0.001  0.003  0.005
   31  0.009  0.004  0.007  0.020
   32  0.003  0.002  0.007  0.012
   33  0.002  0.001  0.003  0.005
   34  0.003  0.003  0.007  0.013
   35  0.000  0.000  0.003  0.003
   36  0.000  0.004  0.235  0.239
   37  0.000  0.012  0.000  0.012
tot    0.246  0.095  0.378  0.719
 
band     6 # energy   -6.43316399 # occ.  2.00000000
 
ion      s      p      d    tot
    1  0.000  0.001  0.002  0.003
    2  0.000  0.000  0.001  0.001
    3  0.003  0.001  0.001  0.005
    4  0.000  0.000  0.001  0.001
    5  0.000  0.001  0.001  0.003
    6  0.002  0.001  0.001  0.003
    7  0.003  0.001  0.001  0.005
    8  0.001  0.001  0.001  0.003
    9  0.000  0.000  0.001  0.001
   10  0.000  0.000  0.006  0.006
   11  0.015  0.002  0.003  0.021
   12  0.019  0.002  0.003  0.025
   13  0.015  0.002  0.003  0.021
   14  0.000  0.006  0.004  0.010
   15  0.000  0.002  0.002  0.004
   16  0.019  0.002  0.003  0.024
   17  0.000  0.002  0.002  0.004
   18  0.000  0.004  0.003  0.007
   19  0.007  0.003  0.003  0.013
   20  0.000  0.005  0.015  0.020
   21  0.053  0.002  0.013  0.068
   22  0.012  0.003  0.004  0.018
   23  0.051  0.003  0.013  0.067
   24  0.000  0.002  0.010  0.011
   25  0.000  0.010  0.000  0.010
   26  0.007  0.002  0.003  0.013
   27  0.011  0.003  0.004  0.018
   28  0.000  0.001  0.002  0.004
   29  0.000  0.001  0.004  0.005
   30  0.008  0.004  0.008  0.020
   31  0.000  0.001  0.004  0.005
   32  0.006  0.002  0.004  0.013
   33  0.008  0.004  0.008  0.020
   34  0.006  0.002  0.004  0.013
   35  0.000  0.000  0.003  0.003
   36  0.000  0.004  0.235  0.239
   37  0.000  0.012  0.000  0.012
tot    0.246  0.095  0.378  0.719
 
band     7 # energy   -6.26181082 # occ.  2.00000000
 
ion      s      p      d    tot
    1  0.000  0.001  0.002  0.003
    2  0.005  0.001  0.001  0.008
    3  0.000  0.001  0.001  0.002
    4  0.005  0.001  0.001  0.008
    5  0.000  0.000  0.002  0.002
    6  0.004  0.001  0.002  0.007
    7  0.000  0.001  0.001  0.002
    8  0.004  0.001  0.002  0.007
    9  0.000  0.002  0.004  0.006
   10  0.000  0.010  0.002  0.012
   11  0.009  0.003  0.004  0.016
   12  0.007  0.002  0.004  0.014
   13  0.009  0.003  0.004  0.016
   14  0.000  0.002  0.008  0.010
   15  0.033  0.003  0.005  0.041
   16  0.007  0.003  0.004  0.014
   17  0.033  0.003  0.005  0.041
   18  0.000  0.003  0.010  0.013
   19  0.037  0.003  0.006  0.047
   20  0.000  0.011  0.003  0.014
   21  0.000  0.004  0.004  0.009
   22  0.034  0.004  0.005  0.042
   23  0.000  0.004  0.004  0.009
   24  0.000  0.011  0.003  0.015
   25  0.000  0.000  0.016  0.016
   26  0.038  0.003  0.006  0.047
   27  0.033  0.004  0.005  0.041
   28  0.000  0.003  0.006  0.009
   29  0.020  0.003  0.005  0.028
   30  0.001  0.002  0.006  0.009
   31  0.019  0.003  0.005  0.028
   32  0.011  0.001  0.005  0.018
   33  0.001  0.002  0.006  0.009
   34  0.011  0.001  0.005  0.018
   35  0.000  0.005  0.005  0.010
   36  0.000  0.000  0.073  0.073
   37  0.000  0.000  0.000  0.000
tot    0.325  0.107  0.228  0.660
 
band     8 # energy   -6.26174382 # occ.  2.00000000
 
ion      s      p      d    tot
    1  0.000  0.001  0.002  0.003
    2  0.001  0.001  0.001  0.003
    3  0.006  0.002  0.002  0.009
    4  0.001  0.001  0.001  0.003
    5  0.000  0.000  0.002  0.002
    6  0.002  0.001  0.001  0.005
    7  0.006  0.002  0.002  0.009
    8  0.002  0.001  0.001  0.004
    9  0.000  0.002  0.004  0.006
   10  0.010  0.000  0.004  0.014
   11  0.003  0.002  0.006  0.012
   12  0.002  0.007  0.002  0.012
   13  0.003  0.002  0.007  0.012
   14  0.012  0.003  0.002  0.018
   15  0.011  0.003  0.008  0.022
   16  0.002  0.007  0.003  0.012
   17  0.011  0.003  0.008  0.022
   18  0.044  0.003  0.003  0.050
   19  0.013  0.001  0.013  0.027
   20  0.000  0.002  0.004  0.007
   21  0.000  0.009  0.004  0.012
   22  0.011  0.009  0.004  0.023
   23  0.000  0.009  0.004  0.012
   24  0.044  0.001  0.005  0.051
   25  0.050  0.004  0.002  0.057
   26  0.012  0.001  0.013  0.026
   27  0.011  0.009  0.004  0.024
   28  0.000  0.003  0.006  0.009
   29  0.002  0.002  0.006  0.009
   30  0.020  0.002  0.005  0.028
   31  0.002  0.002  0.006  0.009
   32  0.010  0.003  0.005  0.019
   33  0.020  0.002  0.005  0.027
   34  0.010  0.003  0.005  0.018
   35  0.000  0.005  0.005  0.010
   36  0.000  0.000  0.073  0.073
   37  0.000  0.000  0.000  0.000
tot    0.325  0.107  0.228  0.660
 
band     9 # energy   -6.24485424 # occ.  2.00000000
 
ion      s      p      d    tot
    1  0.001  0.000  0.000  0.001
    2  0.000  0.001  0.003  0.004
    3  0.000  0.001  0.003  0.004
    4  0.000  0.001  0.003  0.004
    5  0.014  0.002  0.001  0.017
    6  0.000  0.001  0.003  0.004
    7  0.000  0.001  0.003  0.004
    8  0.000  0.001  0.003  0.004
    9  0.008  0.001  0.001  0.010
   10  0.000  0.003  0.007  0.011
   11  0.022  0.008  0.002  0.032
   12  0.000  0.003  0.007  0.011
   13  0.022  0.008  0.002  0.032
   14  0.022  0.008  0.002  0.032
   15  0.017  0.001  0.008  0.026
   16  0.000  0.003  0.007  0.011
   17  0.017  0.001  0.008  0.026
   18  0.017  0.001  0.008  0.026
   19  0.010  0.000  0.012  0.022
   20  0.033  0.008  0.005  0.046
   21  0.033  0.008  0.005  0.046
   22  0.008  0.007  0.004  0.020
   23  0.033  0.008  0.005  0.046
   24  0.008  0.007  0.004  0.020
   25  0.010  0.000  0.012  0.022
   26  0.010  0.000  0.012  0.022
   27  0.008  0.007  0.004  0.020
   28  0.006  0.001  0.000  0.007
   29  0.000  0.002  0.006  0.008
   30  0.000  0.002  0.006  0.008
   31  0.000  0.002  0.006  0.008
   32  0.000  0.002  0.006  0.008
   33  0.000  0.002  0.006  0.008
   34  0.000  0.002  0.006  0.008
   35  0.011  0.001  0.000  0.012
   36  0.034  0.017  0.000  0.051
   37  0.011  0.001  0.000  0.012
tot    0.356  0.127  0.170  0.654
 
band    10 # energy   -6.18529148 # occ.  2.00000000
 
ion      s      p      d    tot
    1  0.020  0.003  0.001  0.024
    2  0.000  0.002  0.004  0.006
    3  0.000  0.002  0.004  0.006
    4  0.000  0.002  0.004  0.006
    5  0.001  0.000  0.000  0.002
    6  0.000  0.002  0.004  0.006
    7  0.000  0.002  0.004  0.006
    8  0.000  0.002  0.004  0.006
    9  0.008  0.002  0.000  0.010
   10  0.028  0.005  0.006  0.039
   11  0.005  0.000  0.011  0.016
   12  0.028  0.005  0.006  0.039
   13  0.005  0.000  0.011  0.016
   14  0.005  0.000  0.011  0.016
   15  0.013  0.008  0.003  0.024
   16  0.028  0.005  0.006  0.039
   17  0.013  0.008  0.003  0.024
   18  0.013  0.008  0.003  0.024
   19  0.022  0.009  0.002  0.034
   20  0.000  0.003  0.010  0.013
   21  0.000  0.003  0.010  0.013
   22  0.026  0.003  0.009  0.038
   23  0.000  0.003  0.010  0.013
   24  0.026  0.003  0.009  0.038
   25  0.022  0.009  0.002  0.034
   26  0.022  0.009  0.002  0.034
   27  0.026  0.003  0.009  0.038
   28  0.022  0.003  0.000  0.025
   29  0.000  0.002  0.004  0.006
   30  0.000  0.002  0.004  0.006
   31  0.000  0.002  0.004  0.006
   32  0.000  0.002  0.004  0.006
   33  0.000  0.002  0.004  0.006
   34  0.000  0.002  0.004  0.006
   35  0.013  0.003  0.001  0.017
   36  0.000  0.000  0.000  0.000
   37  0.000  0.000  0.000  0.000
tot    0.347  0.116  0.177  0.640
 
band    11 # energy   -5.80988454 # occ.  2.00000000
 
ion      s      p      d    tot
    1  0.000  0.000  0.005  0.005
    2  0.013  0.003  0.003  0.019
    3  0.012  0.003  0.003  0.018
    4  0.001  0.001  0.003  0.005
    5  0.000  0.004  0.006  0.010
    6  0.002  0.001  0.003  0.006
    7  0.005  0.002  0.003  0.010
    8  0.006  0.002  0.003  0.011
    9  0.000  0.002  0.005  0.007
   10  0.003  0.002  0.011  0.017
   11  0.043  0.002  0.003  0.048
   12  0.003  0.002  0.012  0.017
   13  0.010  0.002  0.010  0.022
   14  0.012  0.002  0.010  0.024
   15  0.009  0.000  0.006  0.016
   16  0.012  0.002  0.002  0.015
   17  0.002  0.007  0.002  0.011
   18  0.003  0.006  0.002  0.011
   19  0.000  0.001  0.004  0.005
   20  0.000  0.001  0.026  0.027
   21  0.000  0.001  0.027  0.028
   22  0.001  0.001  0.005  0.006
   23  0.001  0.005  0.005  0.010
   24  0.001  0.001  0.005  0.007
   25  0.000  0.001  0.002  0.004
   26  0.000  0.001  0.002  0.004
   27  0.002  0.003  0.008  0.013
   28  0.000  0.001  0.000  0.001
   29  0.000  0.001  0.008  0.009
   30  0.000  0.001  0.007  0.009
   31  0.004  0.000  0.003  0.007
   32  0.004  0.000  0.003  0.007
   33  0.002  0.001  0.006  0.009
   34  0.002  0.001  0.007  0.009
   35  0.000  0.000  0.001  0.001
   36  0.000  0.001  0.300  0.301
   37  0.000  0.027  0.000  0.027
tot    0.155  0.089  0.510  0.754
 
band    12 # energy   -5.80988213 # occ.  2.00000000
 
ion      s      p      d    tot
    1  0.000  0.000  0.005  0.005
    2  0.000  0.001  0.003  0.004
    3  0.001  0.001  0.003  0.004
    4  0.012  0.003  0.003  0.017
    5  0.000  0.004  0.006  0.010
    6  0.011  0.003  0.003  0.017
    7  0.008  0.002  0.003  0.013
    8  0.007  0.002  0.003  0.012
    9  0.000  0.002  0.005  0.007
   10  0.009  0.002  0.005  0.016
   11  0.000  0.002  0.012  0.014
   12  0.009  0.002  0.005  0.016
   13  0.033  0.002  0.005  0.041
   14  0.031  0.002  0.005  0.039
   15  0.000  0.009  0.001  0.009
   16  0.000  0.002  0.015  0.017
   17  0.007  0.002  0.005  0.014
   18  0.007  0.002  0.005  0.014
   19  0.000  0.001  0.002  0.003
   20  0.001  0.003  0.013  0.017
   21  0.001  0.004  0.011  0.016
   22  0.002  0.002  0.007  0.011
   23  0.000  0.000  0.033  0.033
   24  0.002  0.002  0.007  0.011
   25  0.000  0.001  0.003  0.004
   26  0.000  0.001  0.003  0.004
   27  0.000  0.000  0.004  0.004
   28  0.000  0.001  0.000  0.001
   29  0.004  0.000  0.003  0.008
   30  0.004  0.000  0.004  0.008
   31  0.000  0.001  0.008  0.010
   32  0.000  0.001  0.008  0.010
   33  0.002  0.001  0.005  0.008
   34  0.003  0.001  0.004  0.007
   35  0.000  0.000  0.001  0.001
   36  0.000  0.001  0.300  0.301
   37  0.000  0.027  0.000  0.027
tot    0.155  0.089  0.510  0.754
 
band    13 # energy   -5.69589654 # occ.  2.00000000
 
ion      s      p      d    tot
    1  0.000  0.005  0.007  0.012
    2  0.011  0.003  0.004  0.017
    3  0.013  0.003  0.004  0.019
    4  0.010  0.003  0.004  0.017
    5  0.000  0.001  0.006  0.006
    6  0.000  0.001  0.003  0.005
    7  0.012  0.003  0.004  0.019
    8  0.000  0.001  0.003  0.005
    9  0.000  0.002  0.007  0.009
   10  0.034  0.001  0.006  0.041
   11  0.000  0.005  0.006  0.011
   12  0.009  0.004  0.007  0.021
   13  0.000  0.005  0.006  0.011
   14  0.001  0.000  0.005  0.005
   15  0.006  0.001  0.014  0.021
   16  0.008  0.004  0.007  0.019
   17  0.007  0.001  0.013  0.021
   18  0.027  0.003  0.001  0.031
   19  0.000  0.002  0.007  0.008
   20  0.000  0.005  0.010  0.015
   21  0.000  0.002  0.005  0.007
   22  0.000  0.000  0.013  0.013
   23  0.000  0.002  0.005  0.007
   24  0.001  0.001  0.000  0.003
   25  0.000  0.005  0.003  0.008
   26  0.000  0.002  0.007  0.008
   27  0.000  0.000  0.013  0.014
   28  0.000  0.001  0.001  0.003
   29  0.005  0.002  0.012  0.019
   30  0.017  0.000  0.012  0.030
   31  0.004  0.002  0.012  0.018
   32  0.004  0.002  0.011  0.017
   33  0.017  0.000  0.012  0.030
   34  0.005  0.002  0.011  0.018
   35  0.000  0.002  0.002  0.005
   36  0.000  0.000  0.236  0.236
   37  0.000  0.004  0.000  0.004
tot    0.191  0.081  0.481  0.752
 
band    14 # energy   -5.69586214 # occ.  2.00000000
 
ion      s      p      d    tot
    1  0.000  0.005  0.007  0.012
    2  0.005  0.002  0.003  0.010
    3  0.003  0.002  0.004  0.008
    4  0.005  0.002  0.003  0.011
    5  0.000  0.001  0.006  0.006
    6  0.015  0.003  0.004  0.022
    7  0.003  0.002  0.004  0.008
    8  0.015  0.003  0.004  0.022
    9  0.000  0.002  0.007  0.009
   10  0.000  0.005  0.008  0.013
   11  0.000  0.002  0.005  0.007
   12  0.025  0.002  0.006  0.033
   13  0.000  0.002  0.005  0.007
   14  0.000  0.007  0.006  0.013
   15  0.020  0.003  0.005  0.028
   16  0.026  0.002  0.006  0.035
   17  0.019  0.003  0.006  0.028
   18  0.000  0.000  0.017  0.018
   19  0.000  0.004  0.004  0.008
   20  0.000  0.001  0.004  0.004
   21  0.000  0.004  0.008  0.012
   22  0.001  0.001  0.005  0.007
   23  0.000  0.004  0.008  0.012
   24  0.000  0.000  0.017  0.017
   25  0.000  0.001  0.008  0.008
   26  0.000  0.004  0.005  0.008
   27  0.001  0.001  0.004  0.006
   28  0.000  0.001  0.001  0.003
   29  0.012  0.001  0.012  0.025
   30  0.000  0.002  0.012  0.014
   31  0.013  0.001  0.012  0.025
   32  0.013  0.001  0.013  0.026
   33  0.000  0.002  0.012  0.014
   34  0.012  0.001  0.013  0.026
   35  0.000  0.002  0.002  0.005
   36  0.000  0.000  0.236  0.236
   37  0.000  0.004  0.000  0.004
tot    0.191  0.081  0.481  0.752
 
band    15 # energy   -5.64130944 # occ.  2.00000000
 
ion      s      p      d    tot
    1  0.006  0.001  0.012  0.019
    2  0.010  0.000  0.011  0.022
    3  0.010  0.000  0.011  0.022
    4  0.010  0.000  0.011  0.022
    5  0.016  0.000  0.010  0.026
    6  0.010  0.000  0.011  0.022
    7  0.010  0.000  0.011  0.022
    8  0.010  0.000  0.011  0.022
    9  0.011  0.000  0.012  0.023
   10  0.012  0.000  0.019  0.032
   11  0.005  0.001  0.020  0.026
   12  0.013  0.000  0.019  0.032
   13  0.005  0.001  0.020  0.026
   14  0.005  0.001  0.020  0.026
   15  0.010  0.000  0.019  0.029
   16  0.013  0.000  0.019  0.032
   17  0.010  0.000  0.019  0.029
   18  0.010  0.000  0.019  0.029
   19  0.003  0.002  0.007  0.012
   20  0.002  0.001  0.016  0.019
   21  0.002  0.001  0.016  0.019
   22  0.002  0.002  0.006  0.009
   23  0.002  0.001  0.016  0.019
   24  0.002  0.002  0.006  0.009
   25  0.003  0.002  0.007  0.012
   26  0.003  0.002  0.007  0.012
   27  0.002  0.002  0.006  0.009
   28  0.004  0.001  0.000  0.004
   29  0.000  0.002  0.006  0.008
   30  0.000  0.002  0.006  0.008
   31  0.000  0.002  0.006  0.008
   32  0.000  0.002  0.006  0.008
   33  0.000  0.002  0.006  0.008
   34  0.000  0.002  0.006  0.008
   35  0.004  0.001  0.000  0.005
   36  0.011  0.002  0.091  0.104
   37  0.007  0.007  0.000  0.014
tot    0.222  0.042  0.488  0.752
 
band    16 # energy   -5.50608848 # occ.  2.00000000
 
ion      s      p      d    tot
    1  0.014  0.001  0.000  0.015
    2  0.000  0.003  0.010  0.013
    3  0.000  0.003  0.010  0.013
    4  0.000  0.003  0.010  0.013
    5  0.036  0.005  0.002  0.043
    6  0.000  0.003  0.010  0.013
    7  0.000  0.003  0.010  0.013
    8  0.000  0.003  0.010  0.013
    9  0.013  0.001  0.000  0.014
   10  0.001  0.002  0.016  0.018
   11  0.019  0.005  0.008  0.033
   12  0.001  0.002  0.016  0.018
   13  0.019  0.005  0.008  0.033
   14  0.019  0.005  0.008  0.033
   15  0.005  0.001  0.013  0.019
   16  0.001  0.002  0.016  0.018
   17  0.005  0.001  0.013  0.019
   18  0.005  0.001  0.013  0.019
   19  0.002  0.001  0.004  0.008
   20  0.007  0.005  0.022  0.034
   21  0.007  0.005  0.022  0.034
   22  0.000  0.001  0.018  0.019
   23  0.007  0.005  0.022  0.034
   24  0.000  0.001  0.018  0.019
   25  0.002  0.001  0.004  0.008
   26  0.002  0.001  0.004  0.008
   27  0.000  0.001  0.018  0.019
   28  0.013  0.001  0.000  0.014
   29  0.000  0.002  0.010  0.012
   30  0.000  0.002  0.010  0.012
   31  0.000  0.002  0.010  0.012
   32  0.000  0.002  0.010  0.012
   33  0.000  0.002  0.010  0.012
   34  0.000  0.002  0.010  0.012
   35  0.011  0.000  0.000  0.012
   36  0.044  0.017  0.001  0.061
   37  0.012  0.003  0.000  0.015
tot    0.246  0.106  0.363  0.716
 
band    17 # energy   -5.41516392 # occ.  2.00000000
 
ion      s      p      d    tot
    1  0.031  0.003  0.000  0.035
    2  0.000  0.003  0.010  0.013
    3  0.000  0.003  0.010  0.013
    4  0.000  0.003  0.010  0.013
    5  0.001  0.000  0.000  0.001
    6  0.000  0.003  0.010  0.013
    7  0.000  0.003  0.010  0.013
    8  0.000  0.003  0.010  0.013
    9  0.033  0.004  0.001  0.038
   10  0.009  0.003  0.010  0.023
   11  0.001  0.000  0.016  0.016
   12  0.009  0.003  0.010  0.023
   13  0.001  0.000  0.016  0.016
   14  0.001  0.000  0.016  0.016
   15  0.008  0.004  0.016  0.028
   16  0.009  0.003  0.010  0.023
   17  0.008  0.004  0.016  0.028
   18  0.008  0.004  0.016  0.028
   19  0.004  0.003  0.019  0.026
   20  0.000  0.000  0.014  0.014
   21  0.000  0.000  0.014  0.014
   22  0.011  0.004  0.011  0.025
   23  0.000  0.000  0.014  0.014
   24  0.011  0.004  0.011  0.025
   25  0.004  0.003  0.019  0.026
   26  0.004  0.003  0.019  0.026
   27  0.011  0.004  0.011  0.025
   28  0.033  0.003  0.000  0.036
   29  0.000  0.003  0.010  0.013
   30  0.000  0.003  0.010  0.013
   31  0.000  0.003  0.010  0.013
   32  0.000  0.003  0.010  0.013
   33  0.000  0.003  0.010  0.013
   34  0.000  0.003  0.010  0.013
   35  0.032  0.004  0.001  0.037
   36  0.000  0.000  0.000  0.000
   37  0.000  0.000  0.000  0.000
tot    0.229  0.094  0.381  0.705
 
band    18 # energy   -5.29570753 # occ.  2.00000000
 
ion      s      p      d    tot
    1  0.000  0.001  0.006  0.007
    2  0.010  0.002  0.003  0.015
    3  0.000  0.001  0.003  0.004
    4  0.009  0.002  0.003  0.014
    5  0.000  0.003  0.005  0.008
    6  0.007  0.002  0.003  0.012
    7  0.000  0.001  0.003  0.004
    8  0.009  0.002  0.003  0.013
    9  0.000  0.001  0.008  0.009
   10  0.005  0.003  0.006  0.013
   11  0.002  0.001  0.015  0.019
   12  0.001  0.001  0.007  0.009
   13  0.002  0.001  0.017  0.019
   14  0.007  0.003  0.003  0.014
   15  0.000  0.001  0.013  0.014
   16  0.001  0.001  0.007  0.009
   17  0.000  0.001  0.014  0.015
   18  0.001  0.000  0.005  0.006
   19  0.001  0.004  0.018  0.023
   20  0.015  0.003  0.018  0.037
   21  0.003  0.001  0.012  0.016
   22  0.002  0.002  0.015  0.019
   23  0.004  0.001  0.013  0.018
   24  0.011  0.002  0.005  0.019
   25  0.004  0.000  0.008  0.012
   26  0.001  0.005  0.019  0.024
   27  0.003  0.002  0.014  0.019
   28  0.000  0.003  0.018  0.021
   29  0.024  0.003  0.006  0.033
   30  0.000  0.002  0.006  0.008
   31  0.022  0.003  0.006  0.031
   32  0.019  0.003  0.005  0.027
   33  0.000  0.002  0.006  0.009
   34  0.021  0.003  0.005  0.029
   35  0.000  0.002  0.015  0.017
   36  0.000  0.020  0.106  0.125
   37  0.000  0.026  0.000  0.026
tot    0.186  0.111  0.421  0.718
 
band    19 # energy   -5.29569301 # occ.  2.00000000
 
ion      s      p      d    tot
    1  0.000  0.001  0.006  0.007
    2  0.002  0.001  0.003  0.006
    3  0.012  0.002  0.003  0.017
    4  0.003  0.001  0.003  0.007
    5  0.000  0.003  0.005  0.008
    6  0.005  0.001  0.003  0.009
    7  0.012  0.002  0.003  0.017
    8  0.003  0.001  0.003  0.008
    9  0.000  0.001  0.008  0.009
   10  0.000  0.000  0.007  0.007
   11  0.005  0.002  0.008  0.016
   12  0.004  0.002  0.006  0.012
   13  0.006  0.003  0.007  0.015
   14  0.000  0.000  0.020  0.021
   15  0.000  0.000  0.008  0.009
   16  0.003  0.002  0.006  0.011
   17  0.000  0.000  0.008  0.008
   18  0.000  0.001  0.016  0.017
   19  0.003  0.002  0.012  0.017
   20  0.000  0.000  0.010  0.011
   21  0.012  0.003  0.017  0.031
   22  0.009  0.002  0.008  0.019
   23  0.011  0.002  0.016  0.029
   24  0.000  0.001  0.018  0.020
   25  0.000  0.006  0.022  0.027
   26  0.003  0.001  0.011  0.015
   27  0.008  0.002  0.009  0.019
   28  0.000  0.003  0.018  0.021
   29  0.005  0.002  0.006  0.013
   30  0.029  0.003  0.006  0.037
   31  0.007  0.002  0.005  0.015
   32  0.010  0.002  0.007  0.019
   33  0.028  0.003  0.006  0.037
   34  0.007  0.002  0.007  0.016
   35  0.000  0.002  0.015  0.017
   36  0.000  0.020  0.106  0.125
   37  0.000  0.026  0.000  0.026
tot    0.186  0.111  0.421  0.718
 
band    20 # energy   -5.11430434 # occ.  2.00000000
 
ion      s      p      d    tot
    1  0.000  0.002  0.016  0.018
    2  0.018  0.003  0.006  0.026
    3  0.003  0.001  0.006  0.010
    4  0.018  0.003  0.006  0.026
    5  0.000  0.000  0.013  0.013
    6  0.006  0.002  0.006  0.014
    7  0.003  0.001  0.006  0.010
    8  0.006  0.002  0.006  0.013
    9  0.000  0.004  0.005  0.009
   10  0.000  0.000  0.051  0.051
   11  0.001  0.002  0.013  0.017
   12  0.000  0.001  0.016  0.017
   13  0.001  0.002  0.013  0.016
   14  0.000  0.000  0.005  0.005
   15  0.003  0.005  0.014  0.022
   16  0.000  0.001  0.015  0.017
   17  0.003  0.005  0.014  0.022
   18  0.000  0.000  0.026  0.026
   19  0.019  0.001  0.009  0.029
   20  0.000  0.001  0.036  0.037
   21  0.000  0.001  0.018  0.019
   22  0.008  0.001  0.015  0.024
   23  0.000  0.001  0.018  0.019
   24  0.000  0.003  0.004  0.007
   25  0.000  0.000  0.031  0.031
   26  0.019  0.001  0.009  0.029
   27  0.008  0.001  0.015  0.024
   28  0.000  0.000  0.006  0.006
   29  0.000  0.003  0.015  0.018
   30  0.000  0.000  0.008  0.009
   31  0.000  0.003  0.016  0.018
   32  0.000  0.003  0.015  0.017
   33  0.000  0.000  0.008  0.009
   34  0.000  0.003  0.015  0.017
   35  0.000  0.000  0.006  0.006
   36  0.000  0.000  0.146  0.146
   37  0.000  0.000  0.000  0.000
tot    0.118  0.056  0.625  0.798
 
band    21 # energy   -5.11426367 # occ.  2.00000000
 
ion      s      p      d    tot
    1  0.000  0.002  0.016  0.018
    2  0.000  0.001  0.006  0.007
    3  0.015  0.002  0.006  0.023
    4  0.000  0.001  0.006  0.007
    5  0.000  0.000  0.013  0.013
    6  0.012  0.002  0.006  0.019
    7  0.015  0.002  0.006  0.023
    8  0.012  0.002  0.006  0.020
    9  0.000  0.004  0.005  0.009
   10  0.001  0.001  0.004  0.006
   11  0.000  0.001  0.008  0.009
   12  0.000  0.001  0.039  0.040
   13  0.000  0.001  0.008  0.009
   14  0.001  0.003  0.016  0.020
   15  0.001  0.002  0.022  0.024
   16  0.000  0.001  0.040  0.040
   17  0.001  0.002  0.022  0.024
   18  0.003  0.007  0.010  0.021
   19  0.006  0.000  0.024  0.031
   20  0.000  0.000  0.012  0.013
   21  0.000  0.001  0.030  0.031
   22  0.003  0.002  0.008  0.013
   23  0.000  0.001  0.030  0.031
   24  0.011  0.000  0.018  0.029
   25  0.025  0.001  0.001  0.028
   26  0.006  0.000  0.024  0.031
   27  0.003  0.002  0.008  0.013
   28  0.000  0.000  0.006  0.006
   29  0.000  0.001  0.010  0.011
   30  0.000  0.003  0.017  0.021
   31  0.000  0.001  0.010  0.011
   32  0.000  0.001  0.011  0.012
   33  0.000  0.003  0.017  0.021
   34  0.000  0.001  0.011  0.012
   35  0.000  0.000  0.006  0.006
   36  0.000  0.000  0.146  0.146