PROCAR new format
# of k-points:   10         # of bands:  252         # of ions:   38

 k-point     1 :    0.00000000 0.00000000 0.00000000     weight = 0.01562500

band     1 # energy  -23.09361070 # occ.  2.00000000
 
ion      s      p      d    tot
    1  0.000  0.000  0.000  0.000
    2  0.000  0.000  0.000  0.000
    3  0.000  0.000  0.000  0.000
    4  0.000  0.000  0.000  0.000
    5  0.000  0.000  0.000  0.000
    6  0.000  0.000  0.000  0.000
    7  0.000  0.000  0.000  0.000
    8  0.000  0.000  0.000  0.000
    9  0.000  0.000  0.000  0.000
   10  0.000  0.000  0.000  0.000
   11  0.000  0.000  0.000  0.000
   12  0.000  0.000  0.000  0.000
   13  0.000  0.000  0.000  0.000
   14  0.000  0.000  0.000  0.000
   15  0.000  0.000  0.000  0.000
   16  0.000  0.000  0.000  0.000
   17  0.000  0.000  0.000  0.000
   18  0.000  0.000  0.000  0.000
   19  0.000  0.000  0.000  0.000
   20  0.000  0.000  0.000  0.000
   21  0.000  0.000  0.000  0.000
   22  0.000  0.000  0.000  0.000
   23  0.000  0.000  0.000  0.000
   24  0.000  0.000  0.000  0.000
   25  0.000  0.000  0.000  0.000
   26  0.000  0.000  0.000  0.000
   27  0.000  0.000  0.000  0.000
   28  0.000  0.000  0.000  0.000
   29  0.000  0.000  0.000  0.000
   30  0.000  0.000  0.000  0.000
   31  0.000  0.000  0.000  0.000
   32  0.000  0.000  0.000  0.000
   33  0.000  0.000  0.000  0.000
   34  0.000  0.000  0.000  0.000
   35  0.000  0.000  0.000  0.000
   36  0.000  0.000  0.000  0.001
   37  0.163  0.118  0.000  0.282
   38  0.635  0.098  0.000  0.734
tot    0.799  0.217  0.000  1.016
 
band     2 # energy   -9.38224189 # occ.  2.00000000
 
ion      s      p      d    tot
    1  0.000  0.000  0.000  0.000
    2  0.000  0.000  0.000  0.000
    3  0.000  0.000  0.000  0.000
    4  0.000  0.000  0.000  0.000
    5  0.000  0.000  0.000  0.000
    6  0.000  0.000  0.000  0.000
    7  0.000  0.000  0.000  0.000
    8  0.000  0.000  0.000  0.000
    9  0.000  0.000  0.000  0.000
   10  0.000  0.000  0.000  0.000
   11  0.000  0.000  0.000  0.000
   12  0.000  0.000  0.000  0.000
   13  0.000  0.000  0.000  0.000
   14  0.000  0.000  0.000  0.000
   15  0.000  0.000  0.000  0.000
   16  0.000  0.000  0.000  0.000
   17  0.000  0.000  0.000  0.000
   18  0.000  0.000  0.000  0.000
   19  0.000  0.000  0.000  0.000
   20  0.002  0.000  0.001  0.004
   21  0.002  0.000  0.001  0.004
   22  0.000  0.000  0.000  0.000
   23  0.002  0.000  0.001  0.004
   24  0.000  0.000  0.000  0.000
   25  0.000  0.000  0.000  0.000
   26  0.000  0.000  0.000  0.000
   27  0.000  0.000  0.000  0.000
   28  0.000  0.000  0.000  0.000
   29  0.001  0.000  0.000  0.002
   30  0.001  0.000  0.000  0.002
   31  0.001  0.000  0.000  0.002
   32  0.001  0.000  0.000  0.002
   33  0.001  0.000  0.000  0.002
   34  0.001  0.000  0.000  0.002
   35  0.000  0.000  0.000  0.000
   36  0.102  0.040  0.160  0.303
   37  0.278  0.044  0.000  0.322
   38  0.095  0.086  0.000  0.181
tot    0.491  0.172  0.167  0.830
 
band     3 # energy   -7.95075642 # occ.  2.00000000
 
ion      s      p      d    tot
    1  0.007  0.001  0.000  0.007
    2  0.006  0.001  0.000  0.007
    3  0.006  0.001  0.000  0.007
    4  0.006  0.001  0.000  0.007
    5  0.006  0.001  0.000  0.007
    6  0.006  0.001  0.000  0.007
    7  0.006  0.001  0.000  0.007
    8  0.006  0.001  0.000  0.007
    9  0.006  0.001  0.000  0.007
   10  0.026  0.000  0.000  0.027
   11  0.026  0.000  0.000  0.026
   12  0.026  0.000  0.000  0.027
   13  0.026  0.000  0.000  0.026
   14  0.026  0.000  0.000  0.026
   15  0.026  0.000  0.000  0.026
   16  0.026  0.000  0.000  0.027
   17  0.026  0.000  0.000  0.026
   18  0.026  0.000  0.000  0.026
   19  0.024  0.000  0.000  0.024
   20  0.024  0.000  0.000  0.025
   21  0.024  0.000  0.000  0.025
   22  0.024  0.000  0.000  0.024
   23  0.024  0.000  0.000  0.025
   24  0.024  0.000  0.000  0.024
   25  0.024  0.000  0.000  0.024
   26  0.024  0.000  0.000  0.024
   27  0.024  0.000  0.000  0.024
   28  0.005  0.000  0.000  0.005
   29  0.005  0.000  0.000  0.005
   30  0.005  0.000  0.000  0.005
   31  0.005  0.000  0.000  0.005
   32  0.005  0.000  0.000  0.005
   33  0.005  0.000  0.000  0.005
   34  0.005  0.000  0.000  0.005
   35  0.005  0.000  0.000  0.005
   36  0.003  0.002  0.001  0.007
   37  0.006  0.000  0.000  0.006
   38  0.005  0.012  0.000  0.016
tot    0.559  0.025  0.004  0.588
 
band     4 # energy   -6.94235558 # occ.  2.00000000
 
ion      s      p      d    tot
    1  0.007  0.000  0.000  0.008
    2  0.008  0.000  0.000  0.008
    3  0.008  0.000  0.000  0.008
    4  0.008  0.000  0.000  0.008
    5  0.007  0.000  0.000  0.008
    6  0.008  0.000  0.000  0.008
    7  0.008  0.000  0.000  0.008
    8  0.008  0.000  0.000  0.008
    9  0.008  0.000  0.000  0.009
   10  0.006  0.001  0.002  0.009
   11  0.006  0.001  0.001  0.008
   12  0.006  0.001  0.002  0.009
   13  0.006  0.001  0.001  0.008
   14  0.006  0.001  0.001  0.008
   15  0.008  0.000  0.001  0.010
   16  0.006  0.001  0.002  0.009
   17  0.008  0.000  0.001  0.010
   18  0.008  0.000  0.001  0.010
   19  0.003  0.001  0.001  0.004
   20  0.008  0.001  0.003  0.013
   21  0.008  0.001  0.003  0.013
   22  0.002  0.001  0.001  0.004
   23  0.008  0.001  0.003  0.013
   24  0.002  0.001  0.001  0.004
   25  0.003  0.001  0.001  0.004
   26  0.003  0.001  0.001  0.004
   27  0.002  0.001  0.001  0.004
   28  0.004  0.000  0.000  0.005
   29  0.006  0.000  0.001  0.007
   30  0.006  0.000  0.001  0.007
   31  0.006  0.000  0.001  0.007
   32  0.006  0.000  0.001  0.007
   33  0.006  0.000  0.001  0.007
   34  0.006  0.000  0.001  0.007
   35  0.004  0.000  0.000  0.005
   36  0.053  0.001  0.037  0.091
   37  0.004  0.093  0.000  0.097
   38  0.048  0.254  0.000  0.302
tot    0.323  0.365  0.071  0.759
 
band     5 # energy   -6.65139898 # occ.  2.00000000
 
ion      s      p      d    tot
    1  0.010  0.000  0.001  0.011
    2  0.009  0.000  0.001  0.010
    3  0.009  0.000  0.001  0.010
    4  0.009  0.000  0.001  0.010
    5  0.009  0.000  0.001  0.010
    6  0.009  0.000  0.001  0.010
    7  0.009  0.000  0.001  0.010
    8  0.009  0.000  0.001  0.010
    9  0.008  0.000  0.001  0.009
   10  0.005  0.001  0.001  0.007
   11  0.004  0.001  0.001  0.006
   12  0.005  0.001  0.001  0.007
   13  0.004  0.001  0.001  0.006
   14  0.004  0.001  0.001  0.006
   15  0.002  0.001  0.002  0.005
   16  0.005  0.001  0.001  0.007
   17  0.002  0.001  0.002  0.005
   18  0.002  0.001  0.002  0.005
   19  0.012  0.001  0.002  0.016
   20  0.004  0.001  0.006  0.010
   21  0.004  0.001  0.006  0.010
   22  0.015  0.001  0.002  0.017
   23  0.004  0.001  0.006  0.010
   24  0.015  0.001  0.002  0.017
   25  0.012  0.001  0.002  0.016
   26  0.012  0.001  0.002  0.016
   27  0.015  0.001  0.002  0.017
   28  0.012  0.000  0.000  0.012
   29  0.008  0.001  0.001  0.009
   30  0.008  0.001  0.001  0.009
   31  0.008  0.001  0.001  0.009
   32  0.008  0.001  0.001  0.009
   33  0.008  0.001  0.001  0.009
   34  0.008  0.001  0.001  0.009
   35  0.012  0.001  0.000  0.013
   36  0.007  0.010  0.095  0.111
   37  0.000  0.089  0.000  0.089
   38  0.024  0.161  0.000  0.185
tot    0.313  0.279  0.150  0.742
 
band     6 # energy   -6.05739647 # occ.  2.00000000
 
ion      s      p      d    tot
    1  0.000  0.000  0.000  0.000
    2  0.000  0.000  0.000  0.000
    3  0.000  0.000  0.000  0.000
    4  0.000  0.000  0.000  0.000
    5  0.000  0.000  0.000  0.000
    6  0.000  0.000  0.000  0.000
    7  0.000  0.000  0.000  0.000
    8  0.000  0.000  0.000  0.000
    9  0.000  0.000  0.000  0.000
   10  0.002  0.000  0.000  0.003
   11  0.000  0.000  0.000  0.001
   12  0.000  0.000  0.001  0.001
   13  0.000  0.000  0.000  0.001
   14  0.000  0.000  0.000  0.001
   15  0.000  0.000  0.000  0.001
   16  0.000  0.000  0.001  0.001
   17  0.000  0.000  0.000  0.001
   18  0.000  0.000  0.000  0.000
   19  0.000  0.000  0.001  0.001
   20  0.003  0.000  0.003  0.006
   21  0.001  0.000  0.003  0.004
   22  0.000  0.000  0.001  0.001
   23  0.001  0.000  0.003  0.004
   24  0.000  0.000  0.001  0.001
   25  0.001  0.000  0.000  0.002
   26  0.000  0.000  0.001  0.001
   27  0.000  0.000  0.001  0.001
   28  0.000  0.000  0.000  0.000
   29  0.000  0.000  0.002  0.003
   30  0.000  0.000  0.001  0.001
   31  0.000  0.000  0.002  0.003
   32  0.001  0.000  0.003  0.004
   33  0.000  0.000  0.001  0.001
   34  0.001  0.000  0.003  0.004
   35  0.000  0.000  0.000  0.000
   36  0.000  0.003  0.077  0.079
   37  0.000  0.179  0.000  0.179
   38  0.000  0.387  0.000  0.387
tot    0.014  0.572  0.105  0.691
 
band     7 # energy   -6.05729938 # occ.  2.00000000
 
ion      s      p      d    tot
    1  0.000  0.000  0.000  0.000
    2  0.000  0.000  0.000  0.000
    3  0.000  0.000  0.000  0.000
    4  0.000  0.000  0.000  0.000
    5  0.000  0.000  0.000  0.000
    6  0.000  0.000  0.000  0.000
    7  0.000  0.000  0.000  0.000
    8  0.000  0.000  0.000  0.000
    9  0.000  0.000  0.000  0.000
   10  0.000  0.000  0.001  0.001
   11  0.000  0.000  0.000  0.001
   12  0.001  0.000  0.001  0.002
   13  0.000  0.000  0.000  0.001
   14  0.000  0.000  0.000  0.001
   15  0.000  0.000  0.000  0.001
   16  0.001  0.000  0.001  0.002
   17  0.000  0.000  0.000  0.001
   18  0.000  0.000  0.001  0.001
   19  0.001  0.000  0.001  0.002
   20  0.000  0.000  0.003  0.003
   21  0.003  0.000  0.003  0.005
   22  0.000  0.000  0.001  0.001
   23  0.003  0.000  0.003  0.005
   24  0.000  0.000  0.001  0.001
   25  0.000  0.000  0.001  0.001
   26  0.001  0.000  0.001  0.002
   27  0.000  0.000  0.001  0.001
   28  0.000  0.000  0.000  0.000
   29  0.001  0.000  0.002  0.002
   30  0.001  0.000  0.003  0.004
   31  0.001  0.000  0.002  0.002
   32  0.000  0.000  0.001  0.001
   33  0.001  0.000  0.003  0.004
   34  0.000  0.000  0.001  0.001
   35  0.000  0.000  0.000  0.000
   36  0.000  0.003  0.077  0.080
   37  0.000  0.179  0.000  0.179
   38  0.000  0.387  0.000  0.387
tot    0.014  0.572  0.105  0.691
 
band     8 # energy   -5.84245945 # occ.  2.00000000
 
ion      s      p      d    tot
    1  0.010  0.000  0.018  0.028
    2  0.017  0.000  0.014  0.031
    3  0.017  0.000  0.014  0.031
    4  0.017  0.000  0.014  0.031
    5  0.015  0.000  0.012  0.028
    6  0.017  0.000  0.014  0.031
    7  0.017  0.000  0.014  0.031
    8  0.017  0.000  0.014  0.031
    9  0.026  0.000  0.012  0.038
   10  0.010  0.001  0.009  0.020
   11  0.006  0.001  0.009  0.017
   12  0.010  0.001  0.009  0.020
   13  0.006  0.001  0.009  0.017
   14  0.006  0.001  0.009  0.017
   15  0.000  0.001  0.011  0.012
   16  0.010  0.001  0.009  0.020
   17  0.000  0.001  0.011  0.012
   18  0.000  0.001  0.011  0.012
   19  0.002  0.001  0.004  0.007
   20  0.007  0.001  0.004  0.013
   21  0.007  0.001  0.004  0.013
   22  0.000  0.001  0.003  0.004
   23  0.007  0.001  0.004  0.013
   24  0.000  0.001  0.003  0.004
   25  0.002  0.001  0.004  0.007
   26  0.002  0.001  0.004  0.007
   27  0.000  0.001  0.003  0.004
   28  0.012  0.000  0.006  0.019
   29  0.012  0.000  0.008  0.020
   30  0.012  0.000  0.008  0.020
   31  0.012  0.000  0.008  0.020
   32  0.012  0.000  0.008  0.020
   33  0.012  0.000  0.008  0.020
   34  0.012  0.000  0.008  0.020
   35  0.019  0.000  0.006  0.025
   36  0.006  0.001  0.015  0.022
   37  0.000  0.000  0.000  0.000
   38  0.000  0.001  0.000  0.001
tot    0.339  0.022  0.325  0.686
 
band     9 # energy   -5.80702593 # occ.  2.00000000
 
ion      s      p      d    tot
    1  0.000  0.001  0.009  0.009
    2  0.004  0.001  0.003  0.007
    3  0.000  0.000  0.003  0.004
    4  0.004  0.001  0.003  0.007
    5  0.000  0.001  0.006  0.007
    6  0.006  0.001  0.003  0.011
    7  0.000  0.000  0.003  0.004
    8  0.006  0.001  0.003  0.011
    9  0.000  0.000  0.001  0.001
   10  0.040  0.002  0.004  0.046
   11  0.011  0.003  0.018  0.032
   12  0.011  0.001  0.029  0.040
   13  0.012  0.003  0.018  0.033
   14  0.046  0.001  0.012  0.059
   15  0.000  0.002  0.007  0.010
   16  0.010  0.000  0.030  0.040
   17  0.000  0.002  0.008  0.010
   18  0.000  0.000  0.012  0.013
   19  0.003  0.003  0.006  0.012
   20  0.058  0.002  0.007  0.067
   21  0.015  0.002  0.026  0.043
   22  0.003  0.001  0.019  0.024
   23  0.014  0.002  0.027  0.042
   24  0.013  0.001  0.005  0.020
   25  0.014  0.000  0.014  0.027
   26  0.003  0.003  0.006  0.013
   27  0.003  0.001  0.020  0.024
   28  0.000  0.000  0.001  0.002
   29  0.007  0.001  0.003  0.011
   30  0.002  0.001  0.003  0.006
   31  0.007  0.001  0.003  0.011
   32  0.001  0.000  0.002  0.003
   33  0.002  0.001  0.003  0.006
   34  0.001  0.000  0.002  0.003
   35  0.000  0.000  0.004  0.004
   36  0.000  0.003  0.005  0.008
   37  0.000  0.006  0.000  0.006
   38  0.000  0.016  0.000  0.016
tot    0.299  0.065  0.327  0.691
 
band    10 # energy   -5.80701609 # occ.  2.00000000
 
ion      s      p      d    tot
    1  0.000  0.001  0.009  0.009
    2  0.003  0.001  0.003  0.007
    3  0.007  0.001  0.003  0.011
    4  0.003  0.001  0.003  0.007
    5  0.000  0.001  0.006  0.007
    6  0.001  0.000  0.003  0.004
    7  0.006  0.001  0.003  0.011
    8  0.001  0.000  0.003  0.004
    9  0.000  0.000  0.001  0.001
   10  0.000  0.000  0.038  0.038
   11  0.036  0.001  0.013  0.051
   12  0.029  0.002  0.013  0.044
   13  0.034  0.001  0.014  0.050
   14  0.000  0.004  0.020  0.023
   15  0.000  0.001  0.011  0.012
   16  0.030  0.002  0.012  0.044
   17  0.000  0.001  0.010  0.012
   18  0.000  0.003  0.006  0.009
   19  0.010  0.001  0.011  0.023
   20  0.000  0.002  0.033  0.034
   21  0.043  0.002  0.014  0.059
   22  0.010  0.001  0.010  0.021
   23  0.044  0.002  0.013  0.059
   24  0.000  0.001  0.024  0.025
   25  0.000  0.004  0.003  0.008
   26  0.010  0.001  0.011  0.022
   27  0.010  0.001  0.010  0.021
   28  0.000  0.000  0.001  0.002
   29  0.000  0.000  0.002  0.003
   30  0.005  0.001  0.002  0.007
   31  0.000  0.000  0.002  0.003
   32  0.006  0.001  0.003  0.010
   33  0.005  0.001  0.002  0.008
   34  0.006  0.001  0.003  0.010
   35  0.000  0.000  0.004  0.004
   36  0.000  0.003  0.005  0.008
   37  0.000  0.006  0.000  0.006
   38  0.000  0.016  0.000  0.016
tot    0.299  0.065  0.327  0.691
 
band    11 # energy   -5.79309784 # occ.  2.00000000
 
ion      s      p      d    tot
    1  0.017  0.000  0.004  0.021
    2  0.004  0.000  0.008  0.012
    3  0.004  0.000  0.008  0.012
    4  0.004  0.000  0.008  0.012
    5  0.001  0.000  0.009  0.010
    6  0.004  0.000  0.008  0.012
    7  0.004  0.000  0.008  0.012
    8  0.004  0.000  0.008  0.012
    9  0.002  0.000  0.005  0.008
   10  0.001  0.001  0.024  0.025
   11  0.012  0.000  0.018  0.030
   12  0.001  0.001  0.024  0.025
   13  0.012  0.000  0.018  0.030
   14  0.012  0.000  0.018  0.030
   15  0.010  0.001  0.017  0.027
   16  0.001  0.001  0.024  0.025
   17  0.010  0.001  0.017  0.027
   18  0.010  0.001  0.017  0.027
   19  0.019  0.001  0.013  0.032
   20  0.004  0.000  0.025  0.030
   21  0.004  0.000  0.025  0.030
   22  0.000  0.000  0.025  0.025
   23  0.004  0.000  0.025  0.030
   24  0.000  0.000  0.025  0.026
   25  0.019  0.001  0.013  0.032
   26  0.019  0.001  0.013  0.032
   27  0.000  0.000  0.025  0.025
   28  0.001  0.000  0.007  0.008
   29  0.006  0.000  0.008  0.013
   30  0.006  0.000  0.008  0.013
   31  0.006  0.000  0.008  0.013
   32  0.006  0.000  0.008  0.013
   33  0.006  0.000  0.008  0.013
   34  0.006  0.000  0.008  0.013
   35  0.015  0.000  0.003  0.018
   36  0.006  0.001  0.010  0.016
   37  0.000  0.001  0.000  0.001
   38  0.000  0.001  0.000  0.001
tot    0.238  0.015  0.493  0.746
 
band    12 # energy   -5.77412641 # occ.  2.00000000
 
ion      s      p      d    tot
    1  0.000  0.001  0.003  0.003
    2  0.003  0.001  0.004  0.008
    3  0.008  0.001  0.003  0.012
    4  0.004  0.001  0.004  0.008
    5  0.000  0.000  0.005  0.005
    6  0.001  0.000  0.003  0.004
    7  0.008  0.001  0.004  0.013
    8  0.001  0.000  0.003  0.004
    9  0.000  0.001  0.010  0.011
   10  0.020  0.000  0.016  0.037
   11  0.003  0.001  0.021  0.025
   12  0.004  0.004  0.006  0.014
   13  0.003  0.001  0.022  0.026
   14  0.011  0.001  0.006  0.019
   15  0.016  0.001  0.030  0.048
   16  0.005  0.003  0.007  0.015
   17  0.014  0.001  0.031  0.047
   18  0.061  0.002  0.006  0.069
   19  0.011  0.001  0.028  0.039
   20  0.000  0.001  0.013  0.013
   21  0.000  0.002  0.008  0.011
   22  0.010  0.003  0.016  0.029
   23  0.000  0.002  0.008  0.011
   24  0.041  0.001  0.012  0.053
   25  0.039  0.002  0.003  0.044
   26  0.009  0.001  0.029  0.039
   27  0.011  0.003  0.016  0.030
   28  0.000  0.000  0.007  0.007
   29  0.000  0.000  0.003  0.003
   30  0.003  0.001  0.002  0.006
   31  0.000  0.000  0.003  0.003
   32  0.005  0.001  0.003  0.009
   33  0.003  0.001  0.002  0.005
   34  0.005  0.001  0.003  0.009
   35  0.000  0.001  0.005  0.005
   36  0.000  0.000  0.001  0.001
   37  0.000  0.002  0.000  0.002
   38  0.000  0.005  0.000  0.005
tot    0.299  0.048  0.346  0.693
 
band    13 # energy   -5.77411001 # occ.  2.00000000
 
ion      s      p      d    tot
    1  0.000  0.001  0.003  0.003
    2  0.004  0.001  0.003  0.008
    3  0.000  0.000  0.003  0.004
    4  0.004  0.001  0.003  0.008
    5  0.000  0.000  0.005  0.005
    6  0.007  0.001  0.004  0.012
    7  0.000  0.000  0.003  0.004
    8  0.007  0.001  0.004  0.012
    9  0.000  0.001  0.010  0.011
   10  0.000  0.005  0.003  0.008
   11  0.008  0.001  0.012  0.021
   12  0.015  0.001  0.013  0.030
   13  0.009  0.001  0.011  0.021
   14  0.000  0.001  0.026  0.027
   15  0.045  0.001  0.015  0.061
   16  0.014  0.001  0.013  0.029
   17  0.047  0.001  0.014  0.062
   18  0.000  0.001  0.039  0.040
   19  0.029  0.002  0.012  0.042
   20  0.000  0.003  0.007  0.010
   21  0.000  0.001  0.011  0.012
   22  0.032  0.001  0.013  0.046
   23  0.000  0.001  0.011  0.012
   24  0.000  0.004  0.018  0.022
   25  0.000  0.000  0.037  0.037
   26  0.030  0.002  0.011  0.042
   27  0.030  0.001  0.013  0.045
   28  0.000  0.000  0.007  0.007
   29  0.005  0.001  0.002  0.008
   30  0.002  0.001  0.003  0.006
   31  0.005  0.001  0.002  0.009
   32  0.001  0.000  0.002  0.003
   33  0.002  0.001  0.003  0.006
   34  0.001  0.000  0.002  0.003
   35  0.000  0.001  0.005  0.005
   36  0.000  0.000  0.001  0.001
   37  0.000  0.002  0.000  0.002
   38  0.000  0.005  0.000  0.005
tot    0.299  0.048  0.346  0.693
 
band    14 # energy   -5.77170128 # occ.  2.00000000
 
ion      s      p      d    tot
    1  0.003  0.001  0.002  0.006
    2  0.001  0.001  0.006  0.007
    3  0.001  0.001  0.006  0.007
    4  0.001  0.001  0.006  0.007
    5  0.018  0.001  0.000  0.020
    6  0.001  0.001  0.006  0.007
    7  0.001  0.001  0.006  0.007
    8  0.001  0.001  0.006  0.007
    9  0.000  0.000  0.004  0.004
   10  0.022  0.003  0.003  0.028
   11  0.015  0.001  0.022  0.037
   12  0.023  0.003  0.003  0.028
   13  0.015  0.001  0.022  0.037
   14  0.015  0.001  0.022  0.038
   15  0.002  0.001  0.024  0.027
   16  0.023  0.003  0.003  0.028
   17  0.002  0.001  0.024  0.027
   18  0.003  0.001  0.024  0.027
   19  0.012  0.001  0.016  0.030
   20  0.013  0.002  0.011  0.027
   21  0.014  0.002  0.012  0.027
   22  0.010  0.000  0.023  0.033
   23  0.014  0.002  0.012  0.027
   24  0.010  0.000  0.022  0.033
   25  0.013  0.001  0.017  0.031
   26  0.012  0.001  0.016  0.030
   27  0.010  0.000  0.023  0.033
   28  0.020  0.001  0.000  0.022
   29  0.003  0.000  0.006  0.009
   30  0.003  0.000  0.006  0.009
   31  0.003  0.000  0.006  0.009
   32  0.002  0.000  0.006  0.009
   33  0.003  0.000  0.006  0.009
   34  0.002  0.000  0.006  0.009
   35  0.000  0.001  0.007  0.008
   36  0.000  0.001  0.001  0.002
   37  0.000  0.000  0.000  0.000
   38  0.000  0.000  0.000  0.000
tot    0.287  0.035  0.383  0.705
 
band    15 # energy   -5.75696827 # occ.  2.00000000
 
ion      s      p      d    tot
    1  0.008  0.001  0.001  0.010
    2  0.000  0.001  0.005  0.006
    3  0.000  0.001  0.005  0.006
    4  0.000  0.001  0.005  0.006
    5  0.004  0.000  0.000  0.005
    6  0.000  0.001  0.005  0.006
    7  0.000  0.001  0.005  0.006
    8  0.000  0.001  0.005  0.006
    9  0.011  0.002  0.002  0.015
   10  0.006  0.000  0.029  0.035
   11  0.006  0.002  0.010  0.018
   12  0.006  0.000  0.028  0.035
   13  0.006  0.002  0.010  0.018
   14  0.006  0.002  0.010  0.018
   15  0.029  0.002  0.008  0.039
   16  0.006  0.000  0.028  0.035
   17  0.029  0.002  0.008  0.039
   18  0.029  0.002  0.008  0.039
   19  0.001  0.001  0.018  0.021
   20  0.010  0.000  0.019  0.029
   21  0.010  0.000  0.019  0.029
   22  0.021  0.003  0.004  0.028
   23  0.010  0.000  0.019  0.029
   24  0.021  0.003  0.004  0.028
   25  0.001  0.001  0.018  0.020
   26  0.001  0.001  0.018  0.021
   27  0.021  0.003  0.004  0.028
   28  0.002  0.000  0.006  0.009
   29  0.004  0.000  0.007  0.011
   30  0.004  0.000  0.007  0.011
   31  0.004  0.000  0.007  0.011
   32  0.004  0.000  0.007  0.011
   33  0.004  0.000  0.007  0.011
   34  0.004  0.000  0.007  0.011
   35  0.000  0.001  0.005  0.005
   36  0.009  0.006  0.027  0.043
   37  0.002  0.008  0.000  0.010
   38  0.000  0.006  0.000  0.007
tot    0.284  0.056  0.375  0.715
 
band    16 # energy   -5.32177607 # occ.  2.00000000
 
ion      s      p      d    tot
    1  0.000  0.001  0.004  0.005
    2  0.001  0.001  0.005  0.006
    3  0.009  0.001  0.004  0.015
    4  0.001  0.001  0.005  0.006
    5  0.000  0.001  0.010  0.012
    6  0.004  0.001  0.004  0.009
    7  0.009  0.001  0.004  0.015
    8  0.004  0.001  0.004  0.009
    9  0.000  0.000  0.009  0.009
   10  0.000  0.001  0.049  0.049
   11  0.016  0.001  0.020  0.038
   12  0.006  0.002  0.019  0.027
   13  0.016  0.001  0.020  0.038
   14  0.000  0.000  0.052  0.052
   15  0.002  0.000  0.020  0.023
   16  0.006  0.002  0.019  0.027
   17  0.002  0.000  0.020  0.023
   18  0.000  0.001  0.011  0.013
   19  0.005  0.000  0.019  0.024
   20  0.000  0.000  0.067  0.067
   21  0.017  0.001  0.021  0.039
   22  0.003  0.001  0.018  0.023
   23  0.017  0.001  0.021  0.039
   24  0.000  0.001  0.036  0.037
   25  0.000  0.001  0.011  0.012
   26  0.005  0.000  0.019  0.024
   27  0.003  0.001  0.018  0.023
   28  0.000  0.000  0.008  0.009
   29  0.003  0.001  0.004  0.007
   30  0.009  0.001  0.004  0.014
   31  0.003  0.001  0.004  0.007
   32  0.002  0.001  0.004  0.007
   33  0.009  0.001  0.004  0.014
   34  0.002  0.001  0.004  0.007
   35  0.000  0.000  0.003  0.003
   36  0.000  0.003  0.011  0.014
   37  0.000  0.000  0.000  0.000
   38  0.000  0.002  0.000  0.002
tot    0.156  0.034  0.558  0.748
 
band    17 # energy   -5.32176352 # occ.  2.00000000
 
ion      s      p      d    tot
    1  0.000  0.001  0.004  0.005
    2  0.009  0.001  0.004  0.014
    3  0.000  0.000  0.004  0.005
    4  0.009  0.001  0.004  0.014
    5  0.000  0.001  0.010  0.012
    6  0.005  0.001  0.005  0.011
    7  0.000  0.000  0.004  0.005
    8  0.005  0.001  0.005  0.011
    9  0.000  0.000  0.009  0.009
   10  0.008  0.002  0.009  0.019
   11  0.006  0.000  0.042  0.047
   12  0.002  0.001  0.039  0.042
   13  0.006  0.000  0.042  0.047
   14  0.022  0.001  0.010  0.033
   15  0.001  0.001  0.014  0.016
   16  0.002  0.001  0.039  0.042
   17  0.001  0.001  0.014  0.016
   18  0.003  0.000  0.023  0.026
   19  0.002  0.001  0.014  0.016
   20  0.023  0.001  0.006  0.030
   21  0.006  0.000  0.052  0.058
   22  0.001  0.001  0.030  0.032
   23  0.006  0.000  0.052  0.058
   24  0.005  0.001  0.012  0.018
   25  0.006  0.000  0.022  0.028
   26  0.002  0.001  0.014  0.016
   27  0.001  0.001  0.030  0.032
   28  0.000  0.000  0.008  0.009
   29  0.006  0.001  0.004  0.012
   30  0.000  0.000  0.004  0.004
   31  0.006  0.001  0.004  0.012
   32  0.007  0.001  0.004  0.012
   33  0.000  0.000  0.004  0.004
   34  0.007  0.001  0.004  0.012
   35  0.000  0.000  0.003  0.003
   36  0.000  0.003  0.011  0.014
   37  0.000  0.000  0.000  0.000
   38  0.000  0.002  0.000  0.002
tot    0.156  0.033  0.558  0.748
 
band    18 # energy   -5.31030493 # occ.  2.00000000
 
ion      s      p      d    tot
    1  0.019  0.002  0.001  0.022
    2  0.000  0.001  0.008  0.008
    3  0.000  0.001  0.008  0.008
    4  0.000  0.001  0.008  0.008
    5  0.002  0.000  0.002  0.004
    6  0.000  0.001  0.008  0.008
    7  0.000  0.001  0.008  0.008
    8  0.000  0.001  0.008  0.008
    9  0.009  0.001  0.000  0.010
   10  0.008  0.002  0.010  0.020
   11  0.007  0.001  0.031  0.038
   12  0.008  0.002  0.010  0.020
   13  0.007  0.001  0.031  0.038
   14  0.007  0.001  0.031  0.038
   15  0.000  0.000  0.036  0.036
   16  0.008  0.002  0.010  0.020
   17  0.000  0.000  0.036  0.036
   18  0.000  0.001  0.035  0.036
   19  0.008  0.001  0.006  0.016
   20  0.000  0.000  0.042  0.042
   21  0.000  0.000  0.042  0.042
   22  0.011  0.001  0.029  0.040
   23  0.000  0.000  0.042  0.042
   24  0.011  0.001  0.029  0.041
   25  0.008  0.001  0.006  0.016
   26  0.008  0.001  0.006  0.016
   27  0.011  0.001  0.029  0.040
   28  0.018  0.002  0.000  0.020
   29  0.000  0.001  0.007  0.008
   30  0.000  0.001  0.007  0.008
   31  0.000  0.001  0.007  0.008
   32  0.000  0.001  0.007  0.008
   33  0.000  0.001  0.007  0.008
   34  0.000  0.001  0.007  0.008
   35  0.003  0.001  0.003  0.007
   36  0.004  0.001  0.003  0.007
   37  0.000  0.000  0.000  0.000
   38  0.000  0.000  0.000  0.000
tot    0.155  0.031  0.563  0.749
 
band    19 # energy   -5.29550640 # occ.  2.00000000
 
ion      s      p      d    tot
    1  0.000  0.001  0.014  0.015
    2  0.009  0.001  0.004  0.015
    3  0.001  0.000  0.005  0.006
    4  0.009  0.001  0.004  0.015
    5  0.000  0.000  0.006  0.006
    6  0.005  0.001  0.005  0.011
    7  0.001  0.000  0.005  0.006
    8  0.005  0.001  0.005  0.011
    9  0.000  0.001  0.006  0.008
   10  0.000  0.001  0.032  0.032
   11  0.000  0.001  0.019  0.020
   12  0.009  0.000  0.022  0.031
   13  0.000  0.001  0.019  0.020
   14  0.000  0.001  0.018  0.019
   15  0.012  0.002  0.020  0.034
   16  0.009  0.000  0.022  0.031
   17  0.012  0.002  0.020  0.034
   18  0.000  0.000  0.062  0.062
   19  0.014  0.001  0.019  0.034
   20  0.000  0.002  0.017  0.019
   21  0.000  0.001  0.021  0.021
   22  0.015  0.001  0.021  0.036
   23  0.000  0.001  0.021  0.021
   24  0.000  0.001  0.032  0.032
   25  0.000  0.000  0.063  0.064
   26  0.014  0.001  0.019  0.034
   27  0.015  0.001  0.021  0.036
   28  0.000  0.001  0.005  0.006
   29  0.006  0.001  0.004  0.012
   30  0.000  0.000  0.004  0.005
   31  0.006  0.001  0.004  0.012
   32  0.006  0.001  0.003  0.010
   33  0.000  0.000  0.004  0.005
   34  0.006  0.001  0.003  0.010
   35  0.000  0.001  0.009  0.010
   36  0.000  0.000  0.004  0.004
   37  0.000  0.000  0.000  0.000
   38  0.000  0.000  0.000  0.000
tot    0.155  0.030  0.562  0.748
 
band    20 # energy   -5.29548969 # occ.  2.00000000
 
ion      s      p      d    tot
    1  0.000  0.001  0.014  0.015
    2  0.001  0.001  0.005  0.006
    3  0.009  0.001  0.005  0.015
    4  0.001  0.001  0.005  0.006
    5  0.000  0.000  0.006  0.006
    6  0.005  0.001  0.004  0.010
    7  0.009  0.001  0.005  0.015
    8  0.005  0.001  0.004  0.010
    9  0.000  0.001  0.006  0.008
   10  0.012  0.000  0.019  0.031
   11  0.000  0.001  0.018  0.020
   12  0.003  0.001  0.028  0.032
   13  0.000  0.001  0.018  0.020
   14  0.000  0.001  0.019  0.020
   15  0.004  0.001  0.048  0.053
   16  0.003  0.001  0.028  0.032
   17  0.004  0.001  0.048  0.053
   18  0.016  0.002  0.006  0.024
   19  0.005  0.001  0.049  0.054
   20  0.000  0.000  0.022  0.022
   21  0.000  0.001  0.018  0.020
   22  0.005  0.001  0.028  0.034
   23  0.000  0.001  0.018  0.020
   24  0.020  0.001  0.017  0.037
   25  0.018  0.002  0.005  0.024
   26  0.005  0.001  0.049  0.054
   27  0.005  0.001  0.028  0.034
   28  0.000  0.001  0.005  0.006
   29  0.002  0.000  0.004  0.006
   30  0.008  0.001  0.003  0.013
   31  0.002  0.000  0.004  0.006
   32  0.002  0.001  0.005  0.008
   33  0.008  0.001  0.003  0.013
   34  0.002  0.001  0.005  0.008
   35  0.000  0.001  0.009  0.010
   36  0.000  0.000  0.004  0.004
   37  0.000  0.000  0.000  0.000
   38  0.000  0.000  0.000  0.000
tot    0.155  0.030  0.562  0.748
 
band    21 # energy   -5.27253334 # occ.  2.00000000
 
ion      s      p      d    tot
    1  0.002  0.000  0.001  0.003
    2  0.000  0.001  0.008  0.009
    3  0.000  0.001  0.008  0.009
    4  0.000  0.001  0.008  0.009
    5  0.018  0.002  0.000  0.020
    6  0.000  0.001  0.008  0.009
    7  0.000  0.001  0.008  0.009
    8  0.000  0.001  0.008  0.009
    9  0.008  0.001  0.002  0.011
   10  0.001  0.000  0.043  0.044
   11  0.003  0.001  0.021  0.026
   12  0.001  0.000  0.043  0.044
   13  0.003  0.001  0.021  0.026
   14  0.003  0.001  0.021  0.026
   15  0.008  0.001  0.014  0.023
   16  0.001  0.000  0.043  0.044