PROCAR new format
# of k-points:   10         # of bands:  252         # of ions:   36

 k-point     1 :    0.00000000 0.00000000 0.00000000     weight = 0.01562500

band     1 # energy  -49.01971978 # occ.  2.00000000
 
ion      s      p      d    tot
    1  0.000  0.000  0.000  0.000
    2  0.000  0.000  0.000  0.000
    3  0.000  0.000  0.000  0.000
    4  0.000  0.000  0.000  0.000
    5  0.000  0.000  0.000  0.000
    6  0.000  0.000  0.000  0.000
    7  0.000  0.000  0.000  0.000
    8  0.000  0.000  0.000  0.000
    9  0.000  0.000  0.000  0.000
   10  0.000  0.000  0.000  0.000
   11  0.000  0.000  0.000  0.000
   12  0.000  0.000  0.000  0.000
   13  0.000  0.000  0.000  0.000
   14  0.000  0.000  0.000  0.000
   15  0.000  0.000  0.000  0.000
   16  0.000  0.000  0.000  0.000
   17  0.000  0.000  0.000  0.000
   18  0.000  0.000  0.000  0.000
   19  0.000  0.000  0.000  0.000
   20  0.000  0.000  0.000  0.000
   21  0.000  0.000  0.000  0.000
   22  0.000  0.000  0.000  0.000
   23  0.000  0.000  0.000  0.000
   24  0.000  0.000  0.000  0.000
   25  0.000  0.000  0.000  0.000
   26  0.000  0.000  0.000  0.000
   27  0.000  0.000  0.000  0.000
   28  0.000  0.000  0.000  0.000
   29  0.000  0.000  0.000  0.000
   30  0.000  0.000  0.000  0.000
   31  0.000  0.000  0.000  0.000
   32  0.000  0.000  0.000  0.000
   33  0.000  0.000  0.000  0.000
   34  0.000  0.000  0.000  0.000
   35  0.000  0.000  0.000  0.000
   36  0.993  0.000  0.000  0.993
tot    0.993  0.000  0.000  0.993
 
band     2 # energy  -27.10037739 # occ.  2.00000000
 
ion      s      p      d    tot
    1  0.000  0.000  0.000  0.000
    2  0.000  0.000  0.000  0.000
    3  0.000  0.000  0.000  0.000
    4  0.000  0.000  0.000  0.000
    5  0.000  0.000  0.000  0.000
    6  0.000  0.000  0.000  0.000
    7  0.000  0.000  0.000  0.000
    8  0.000  0.000  0.000  0.000
    9  0.000  0.000  0.000  0.000
   10  0.000  0.000  0.000  0.000
   11  0.000  0.000  0.000  0.000
   12  0.000  0.000  0.000  0.000
   13  0.000  0.000  0.000  0.000
   14  0.000  0.000  0.000  0.000
   15  0.000  0.000  0.000  0.000
   16  0.000  0.000  0.000  0.000
   17  0.000  0.000  0.000  0.000
   18  0.000  0.000  0.000  0.000
   19  0.000  0.000  0.000  0.000
   20  0.000  0.000  0.000  0.000
   21  0.000  0.000  0.000  0.000
   22  0.000  0.000  0.000  0.000
   23  0.000  0.000  0.000  0.000
   24  0.000  0.000  0.000  0.000
   25  0.000  0.000  0.000  0.000
   26  0.000  0.000  0.000  0.000
   27  0.000  0.000  0.000  0.000
   28  0.000  0.000  0.000  0.000
   29  0.000  0.000  0.000  0.000
   30  0.000  0.000  0.000  0.000
   31  0.000  0.000  0.000  0.000
   32  0.000  0.000  0.000  0.000
   33  0.000  0.000  0.000  0.000
   34  0.000  0.000  0.000  0.000
   35  0.000  0.000  0.000  0.000
   36  0.000  0.974  0.000  0.974
tot    0.000  0.975  0.000  0.975
 
band     3 # energy  -26.97872376 # occ.  2.00000000
 
ion      s      p      d    tot
    1  0.000  0.000  0.000  0.000
    2  0.000  0.000  0.000  0.000
    3  0.000  0.000  0.000  0.000
    4  0.000  0.000  0.000  0.000
    5  0.000  0.000  0.000  0.000
    6  0.000  0.000  0.000  0.000
    7  0.000  0.000  0.000  0.000
    8  0.000  0.000  0.000  0.000
    9  0.000  0.000  0.000  0.000
   10  0.000  0.000  0.000  0.000
   11  0.000  0.000  0.000  0.000
   12  0.000  0.000  0.000  0.000
   13  0.000  0.000  0.000  0.000
   14  0.000  0.000  0.000  0.000
   15  0.000  0.000  0.000  0.000
   16  0.000  0.000  0.000  0.000
   17  0.000  0.000  0.000  0.000
   18  0.000  0.000  0.000  0.000
   19  0.000  0.000  0.000  0.000
   20  0.000  0.000  0.000  0.000
   21  0.000  0.000  0.000  0.000
   22  0.000  0.000  0.000  0.000
   23  0.000  0.000  0.000  0.000
   24  0.000  0.000  0.000  0.000
   25  0.000  0.000  0.000  0.000
   26  0.000  0.000  0.000  0.000
   27  0.000  0.000  0.000  0.000
   28  0.000  0.000  0.000  0.000
   29  0.000  0.000  0.000  0.000
   30  0.000  0.000  0.000  0.000
   31  0.000  0.000  0.000  0.000
   32  0.000  0.000  0.000  0.000
   33  0.000  0.000  0.000  0.000
   34  0.000  0.000  0.000  0.000
   35  0.000  0.000  0.000  0.000
   36  0.000  0.972  0.000  0.972
tot    0.000  0.973  0.001  0.974
 
band     4 # energy  -26.97871626 # occ.  2.00000000
 
ion      s      p      d    tot
    1  0.000  0.000  0.000  0.000
    2  0.000  0.000  0.000  0.000
    3  0.000  0.000  0.000  0.000
    4  0.000  0.000  0.000  0.000
    5  0.000  0.000  0.000  0.000
    6  0.000  0.000  0.000  0.000
    7  0.000  0.000  0.000  0.000
    8  0.000  0.000  0.000  0.000
    9  0.000  0.000  0.000  0.000
   10  0.000  0.000  0.000  0.000
   11  0.000  0.000  0.000  0.000
   12  0.000  0.000  0.000  0.000
   13  0.000  0.000  0.000  0.000
   14  0.000  0.000  0.000  0.000
   15  0.000  0.000  0.000  0.000
   16  0.000  0.000  0.000  0.000
   17  0.000  0.000  0.000  0.000
   18  0.000  0.000  0.000  0.000
   19  0.000  0.000  0.000  0.000
   20  0.000  0.000  0.000  0.000
   21  0.000  0.000  0.000  0.000
   22  0.000  0.000  0.000  0.000
   23  0.000  0.000  0.000  0.000
   24  0.000  0.000  0.000  0.000
   25  0.000  0.000  0.000  0.000
   26  0.000  0.000  0.000  0.000
   27  0.000  0.000  0.000  0.000
   28  0.000  0.000  0.000  0.000
   29  0.000  0.000  0.000  0.000
   30  0.000  0.000  0.000  0.000
   31  0.000  0.000  0.000  0.000
   32  0.000  0.000  0.000  0.000
   33  0.000  0.000  0.000  0.000
   34  0.000  0.000  0.000  0.000
   35  0.000  0.000  0.000  0.000
   36  0.000  0.972  0.000  0.972
tot    0.000  0.973  0.001  0.974
 
band     5 # energy   -6.15351865 # occ.  2.00000000
 
ion      s      p      d    tot
    1  0.006  0.001  0.000  0.007
    2  0.006  0.001  0.000  0.006
    3  0.006  0.001  0.000  0.006
    4  0.006  0.001  0.000  0.006
    5  0.006  0.001  0.000  0.006
    6  0.006  0.001  0.000  0.006
    7  0.006  0.001  0.000  0.006
    8  0.006  0.001  0.000  0.006
    9  0.006  0.001  0.000  0.006
   10  0.023  0.000  0.000  0.024
   11  0.023  0.000  0.000  0.024
   12  0.023  0.000  0.000  0.024
   13  0.023  0.000  0.000  0.024
   14  0.023  0.000  0.000  0.024
   15  0.022  0.000  0.000  0.023
   16  0.023  0.000  0.000  0.024
   17  0.022  0.000  0.000  0.023
   18  0.022  0.000  0.000  0.023
   19  0.023  0.000  0.000  0.024
   20  0.024  0.000  0.000  0.024
   21  0.024  0.000  0.000  0.024
   22  0.022  0.000  0.000  0.023
   23  0.024  0.000  0.000  0.024
   24  0.022  0.000  0.000  0.023
   25  0.023  0.000  0.000  0.024
   26  0.023  0.000  0.000  0.024
   27  0.022  0.000  0.000  0.023
   28  0.006  0.001  0.000  0.007
   29  0.006  0.001  0.000  0.007
   30  0.006  0.001  0.000  0.007
   31  0.006  0.001  0.000  0.007
   32  0.006  0.001  0.000  0.007
   33  0.006  0.001  0.000  0.007
   34  0.006  0.001  0.000  0.007
   35  0.006  0.001  0.000  0.006
   36  0.004  0.000  0.000  0.004
tot    0.520  0.012  0.006  0.538
 
band     6 # energy   -5.29625200 # occ.  2.00000000
 
ion      s      p      d    tot
    1  0.009  0.000  0.000  0.009
    2  0.009  0.000  0.000  0.009
    3  0.009  0.000  0.000  0.009
    4  0.009  0.000  0.000  0.009
    5  0.009  0.000  0.001  0.009
    6  0.009  0.000  0.000  0.009
    7  0.009  0.000  0.000  0.009
    8  0.009  0.000  0.000  0.009
    9  0.009  0.000  0.000  0.009
   10  0.012  0.001  0.014  0.027
   11  0.012  0.001  0.013  0.026
   12  0.012  0.001  0.014  0.027
   13  0.012  0.001  0.013  0.026
   14  0.012  0.001  0.013  0.026
   15  0.011  0.001  0.012  0.024
   16  0.012  0.001  0.014  0.027
   17  0.011  0.001  0.012  0.024
   18  0.011  0.001  0.012  0.024
   19  0.011  0.001  0.012  0.024
   20  0.011  0.001  0.017  0.029
   21  0.011  0.001  0.017  0.029
   22  0.011  0.001  0.012  0.023
   23  0.011  0.001  0.017  0.029
   24  0.011  0.001  0.012  0.023
   25  0.011  0.001  0.012  0.024
   26  0.011  0.001  0.012  0.024
   27  0.011  0.001  0.012  0.023
   28  0.010  0.000  0.001  0.011
   29  0.009  0.000  0.001  0.011
   30  0.009  0.000  0.001  0.011
   31  0.009  0.000  0.001  0.011
   32  0.009  0.000  0.001  0.011
   33  0.009  0.000  0.001  0.011
   34  0.009  0.000  0.001  0.011
   35  0.009  0.000  0.001  0.010
   36  0.005  0.000  0.000  0.006
tot    0.357  0.025  0.252  0.634
 
band     7 # energy   -5.04848288 # occ.  2.00000000
 
ion      s      p      d    tot
    1  0.006  0.000  0.011  0.018
    2  0.006  0.000  0.009  0.016
    3  0.006  0.000  0.009  0.016
    4  0.006  0.000  0.009  0.016
    5  0.006  0.000  0.008  0.014
    6  0.006  0.000  0.009  0.016
    7  0.006  0.000  0.009  0.016
    8  0.006  0.000  0.009  0.016
    9  0.007  0.000  0.009  0.016
   10  0.000  0.000  0.017  0.017
   11  0.000  0.000  0.014  0.014
   12  0.000  0.000  0.017  0.017
   13  0.000  0.000  0.014  0.014
   14  0.000  0.000  0.014  0.014
   15  0.000  0.000  0.011  0.011
   16  0.000  0.000  0.017  0.017
   17  0.000  0.000  0.011  0.011
   18  0.000  0.000  0.011  0.011
   19  0.001  0.000  0.022  0.023
   20  0.001  0.000  0.033  0.034
   21  0.001  0.000  0.033  0.034
   22  0.001  0.000  0.016  0.017
   23  0.001  0.000  0.033  0.034
   24  0.001  0.000  0.016  0.017
   25  0.001  0.000  0.022  0.023
   26  0.001  0.000  0.022  0.023
   27  0.001  0.000  0.016  0.017
   28  0.011  0.000  0.018  0.029
   29  0.012  0.000  0.023  0.035
   30  0.012  0.000  0.023  0.035
   31  0.012  0.000  0.023  0.035
   32  0.012  0.000  0.023  0.035
   33  0.012  0.000  0.023  0.035
   34  0.012  0.000  0.023  0.035
   35  0.012  0.000  0.019  0.030
   36  0.008  0.000  0.006  0.013
tot    0.171  0.004  0.600  0.774
 
band     8 # energy   -4.89822080 # occ.  2.00000000
 
ion      s      p      d    tot
    1  0.003  0.001  0.005  0.008
    2  0.000  0.000  0.006  0.006
    3  0.000  0.000  0.006  0.006
    4  0.000  0.000  0.006  0.006
    5  0.004  0.000  0.000  0.004
    6  0.000  0.000  0.006  0.006
    7  0.000  0.000  0.006  0.006
    8  0.000  0.000  0.006  0.006
    9  0.002  0.000  0.000  0.003
   10  0.008  0.000  0.022  0.030
   11  0.000  0.000  0.025  0.026
   12  0.008  0.000  0.022  0.030
   13  0.000  0.000  0.025  0.026
   14  0.000  0.000  0.025  0.026
   15  0.004  0.001  0.006  0.010
   16  0.008  0.000  0.022  0.030
   17  0.004  0.001  0.006  0.010
   18  0.004  0.001  0.006  0.010
   19  0.003  0.001  0.031  0.035
   20  0.006  0.000  0.102  0.108
   21  0.006  0.000  0.102  0.108
   22  0.014  0.001  0.012  0.027
   23  0.006  0.000  0.102  0.108
   24  0.014  0.001  0.012  0.027
   25  0.003  0.001  0.031  0.035
   26  0.003  0.001  0.031  0.035
   27  0.014  0.001  0.012  0.027
   28  0.000  0.000  0.001  0.001
   29  0.000  0.000  0.005  0.005
   30  0.000  0.000  0.005  0.005
   31  0.000  0.000  0.005  0.005
   32  0.000  0.000  0.005  0.005
   33  0.000  0.000  0.005  0.005
   34  0.000  0.000  0.005  0.005
   35  0.006  0.001  0.001  0.009
   36  0.001  0.001  0.003  0.005
tot    0.123  0.014  0.671  0.808
 
band     9 # energy   -4.88662696 # occ.  2.00000000
 
ion      s      p      d    tot
    1  0.000  0.000  0.008  0.008
    2  0.001  0.000  0.002  0.003
    3  0.001  0.000  0.002  0.003
    4  0.000  0.000  0.003  0.003
    5  0.000  0.000  0.002  0.002
    6  0.000  0.000  0.002  0.002
    7  0.001  0.000  0.003  0.004
    8  0.001  0.000  0.003  0.004
    9  0.000  0.000  0.004  0.004
   10  0.003  0.001  0.022  0.025
   11  0.000  0.000  0.021  0.021
   12  0.002  0.001  0.021  0.024
   13  0.000  0.000  0.026  0.026
   14  0.000  0.000  0.025  0.026
   15  0.009  0.001  0.008  0.018
   16  0.010  0.001  0.024  0.034
   17  0.002  0.000  0.022  0.024
   18  0.003  0.000  0.020  0.023
   19  0.028  0.001  0.027  0.056
   20  0.004  0.000  0.105  0.109
   21  0.003  0.000  0.118  0.122
   22  0.000  0.001  0.022  0.024
   23  0.015  0.001  0.012  0.027
   24  0.001  0.001  0.024  0.026
   25  0.009  0.001  0.046  0.056
   26  0.006  0.001  0.049  0.055
   27  0.002  0.000  0.038  0.040
   28  0.000  0.000  0.007  0.008
   29  0.000  0.000  0.006  0.006
   30  0.000  0.000  0.006  0.007
   31  0.001  0.001  0.007  0.008
   32  0.001  0.001  0.007  0.009
   33  0.000  0.000  0.002  0.003
   34  0.000  0.000  0.002  0.002
   35  0.000  0.000  0.000  0.000
   36  0.000  0.000  0.001  0.002
tot    0.103  0.014  0.697  0.814
 
band    10 # energy   -4.88661861 # occ.  2.00000000
 
ion      s      p      d    tot
    1  0.000  0.000  0.008  0.008
    2  0.000  0.000  0.003  0.003
    3  0.000  0.000  0.003  0.003
    4  0.001  0.000  0.003  0.004
    5  0.000  0.000  0.002  0.002
    6  0.001  0.000  0.003  0.004
    7  0.000  0.000  0.002  0.003
    8  0.000  0.000  0.002  0.002
    9  0.000  0.000  0.004  0.004
   10  0.007  0.001  0.023  0.031
   11  0.000  0.000  0.027  0.028
   12  0.008  0.001  0.023  0.032
   13  0.000  0.000  0.022  0.023
   14  0.000  0.000  0.023  0.023
   15  0.000  0.000  0.025  0.026
   16  0.000  0.001  0.021  0.022
   17  0.007  0.001  0.011  0.019
   18  0.007  0.001  0.013  0.020
   19  0.000  0.001  0.054  0.055
   20  0.010  0.000  0.052  0.062
   21  0.012  0.000  0.038  0.051
   22  0.002  0.000  0.034  0.036
   23  0.000  0.000  0.145  0.145
   24  0.001  0.001  0.032  0.034
   25  0.020  0.001  0.036  0.056
   26  0.023  0.001  0.033  0.056
   27  0.000  0.002  0.018  0.020
   28  0.000  0.000  0.007  0.008
   29  0.001  0.000  0.004  0.006
   30  0.001  0.000  0.004  0.005
   31  0.000  0.000  0.003  0.003
   32  0.000  0.000  0.003  0.003
   33  0.001  0.000  0.008  0.009
   34  0.001  0.000  0.008  0.009
   35  0.000  0.000  0.000  0.000
   36  0.000  0.000  0.001  0.002
tot    0.103  0.014  0.697  0.814
 
band    11 # energy   -4.88482121 # occ.  2.00000000
 
ion      s      p      d    tot
    1  0.015  0.000  0.014  0.029
    2  0.010  0.000  0.023  0.033
    3  0.010  0.000  0.023  0.033
    4  0.010  0.000  0.023  0.033
    5  0.007  0.000  0.035  0.042
    6  0.010  0.000  0.023  0.033
    7  0.010  0.000  0.023  0.033
    8  0.010  0.000  0.023  0.033
    9  0.009  0.000  0.020  0.029
   10  0.000  0.000  0.014  0.015
   11  0.005  0.001  0.026  0.033
   12  0.000  0.000  0.014  0.015
   13  0.005  0.001  0.026  0.032
   14  0.005  0.001  0.027  0.033
   15  0.003  0.000  0.023  0.026
   16  0.000  0.000  0.014  0.015
   17  0.003  0.000  0.023  0.026
   18  0.003  0.000  0.023  0.026
   19  0.000  0.000  0.010  0.010
   20  0.003  0.000  0.017  0.020
   21  0.002  0.001  0.017  0.020
   22  0.002  0.000  0.003  0.006
   23  0.002  0.001  0.017  0.020
   24  0.002  0.000  0.003  0.006
   25  0.000  0.000  0.010  0.010
   26  0.000  0.000  0.010  0.010
   27  0.002  0.000  0.003  0.006
   28  0.004  0.000  0.007  0.012
   29  0.004  0.000  0.015  0.019
   30  0.004  0.000  0.015  0.019
   31  0.004  0.000  0.015  0.019
   32  0.004  0.000  0.015  0.019
   33  0.004  0.000  0.015  0.019
   34  0.004  0.000  0.015  0.019
   35  0.002  0.000  0.012  0.014
   36  0.004  0.000  0.003  0.007
tot    0.167  0.009  0.603  0.779
 
band    12 # energy   -4.87534431 # occ.  2.00000000
 
ion      s      p      d    tot
    1  0.000  0.000  0.006  0.006
    2  0.000  0.000  0.002  0.003
    3  0.001  0.000  0.006  0.007
    4  0.000  0.000  0.002  0.003
    5  0.000  0.000  0.009  0.009
    6  0.002  0.001  0.006  0.008
    7  0.001  0.000  0.006  0.007
    8  0.002  0.001  0.006  0.008
    9  0.000  0.000  0.000  0.000
   10  0.012  0.001  0.009  0.022
   11  0.009  0.001  0.057  0.066
   12  0.003  0.000  0.086  0.089
   13  0.007  0.001  0.059  0.067
   14  0.032  0.001  0.020  0.053
   15  0.001  0.001  0.017  0.020
   16  0.003  0.000  0.082  0.085
   17  0.001  0.001  0.016  0.018
   18  0.004  0.000  0.038  0.042
   19  0.000  0.000  0.021  0.021
   20  0.014  0.001  0.031  0.046
   21  0.003  0.001  0.029  0.034
   22  0.002  0.000  0.026  0.029
   23  0.004  0.001  0.030  0.034
   24  0.010  0.001  0.006  0.018
   25  0.000  0.000  0.020  0.021
   26  0.000  0.000  0.021  0.021
   27  0.003  0.000  0.025  0.028
   28  0.000  0.000  0.001  0.001
   29  0.002  0.000  0.004  0.006
   30  0.001  0.000  0.004  0.005
   31  0.002  0.000  0.004  0.006
   32  0.000  0.000  0.003  0.003
   33  0.001  0.000  0.004  0.005
   34  0.000  0.000  0.003  0.003
   35  0.000  0.000  0.006  0.006
   36  0.000  0.000  0.002  0.002
tot    0.120  0.016  0.669  0.805
 
band    13 # energy   -4.87534045 # occ.  2.00000000
 
ion      s      p      d    tot
    1  0.000  0.000  0.006  0.006
    2  0.001  0.001  0.007  0.009
    3  0.001  0.000  0.003  0.005
    4  0.001  0.001  0.007  0.009
    5  0.000  0.000  0.009  0.009
    6  0.000  0.000  0.003  0.004
    7  0.001  0.001  0.003  0.005
    8  0.000  0.000  0.004  0.004
    9  0.000  0.000  0.000  0.000
   10  0.000  0.000  0.109  0.109
   11  0.023  0.001  0.034  0.058
   12  0.009  0.001  0.032  0.042
   13  0.025  0.001  0.032  0.057
   14  0.000  0.001  0.071  0.072
   15  0.003  0.001  0.030  0.034
   16  0.009  0.001  0.036  0.046
   17  0.003  0.000  0.031  0.035
   18  0.000  0.002  0.010  0.011
   19  0.000  0.000  0.021  0.021
   20  0.000  0.001  0.029  0.030
   21  0.011  0.001  0.030  0.042
   22  0.008  0.001  0.012  0.021
   23  0.010  0.001  0.030  0.041
   24  0.000  0.000  0.032  0.032
   25  0.000  0.001  0.021  0.022
   26  0.000  0.000  0.021  0.021
   27  0.007  0.001  0.013  0.021
   28  0.000  0.000  0.001  0.001
   29  0.000  0.000  0.003  0.004
   30  0.001  0.000  0.004  0.005
   31  0.000  0.000  0.003  0.004
   32  0.002  0.000  0.004  0.006
   33  0.001  0.000  0.004  0.005
   34  0.002  0.000  0.004  0.006
   35  0.000  0.000  0.006  0.006
   36  0.000  0.000  0.002  0.002
tot    0.120  0.016  0.669  0.805
 
band    14 # energy   -4.87069651 # occ.  2.00000000
 
ion      s      p      d    tot
    1  0.001  0.000  0.001  0.002
    2  0.001  0.000  0.007  0.009
    3  0.001  0.000  0.007  0.009
    4  0.001  0.000  0.007  0.009
    5  0.007  0.001  0.000  0.008
    6  0.001  0.000  0.007  0.009
    7  0.001  0.000  0.007  0.009
    8  0.001  0.000  0.007  0.009
    9  0.000  0.000  0.015  0.015
   10  0.006  0.001  0.018  0.025
   11  0.010  0.001  0.026  0.037
   12  0.006  0.001  0.018  0.025
   13  0.010  0.001  0.026  0.037
   14  0.010  0.001  0.026  0.037
   15  0.004  0.000  0.054  0.058
   16  0.006  0.001  0.018  0.025
   17  0.004  0.000  0.054  0.058
   18  0.004  0.000  0.054  0.058
   19  0.011  0.001  0.028  0.039
   20  0.005  0.001  0.014  0.020
   21  0.005  0.001  0.014  0.020
   22  0.000  0.000  0.030  0.030
   23  0.005  0.001  0.014  0.020
   24  0.000  0.000  0.030  0.030
   25  0.011  0.001  0.027  0.039
   26  0.011  0.001  0.027  0.039
   27  0.000  0.000  0.030  0.030
   28  0.001  0.001  0.007  0.009
   29  0.001  0.000  0.011  0.012
   30  0.001  0.000  0.011  0.012
   31  0.001  0.000  0.011  0.012
   32  0.001  0.000  0.011  0.012
   33  0.001  0.000  0.011  0.012
   34  0.001  0.000  0.011  0.012
   35  0.005  0.000  0.001  0.005
   36  0.001  0.000  0.000  0.002
tot    0.138  0.016  0.640  0.794
 
band    15 # energy   -4.86059326 # occ.  2.00000000
 
ion      s      p      d    tot
    1  0.000  0.000  0.020  0.020
    2  0.001  0.000  0.007  0.008
    3  0.001  0.000  0.007  0.008
    4  0.001  0.000  0.007  0.008
    5  0.000  0.000  0.000  0.001
    6  0.001  0.000  0.007  0.008
    7  0.001  0.000  0.007  0.008
    8  0.001  0.000  0.007  0.008
    9  0.006  0.001  0.001  0.007
   10  0.003  0.000  0.075  0.078
   11  0.002  0.000  0.035  0.037
   12  0.003  0.000  0.075  0.078
   13  0.002  0.000  0.035  0.037
   14  0.002  0.000  0.035  0.037
   15  0.006  0.000  0.010  0.016
   16  0.003  0.000  0.075  0.078
   17  0.006  0.000  0.010  0.016
   18  0.006  0.000  0.010  0.016
   19  0.000  0.000  0.033  0.033
   20  0.000  0.000  0.031  0.031
   21  0.000  0.000  0.031  0.031
   22  0.002  0.000  0.014  0.015
   23  0.000  0.000  0.031  0.031
   24  0.002  0.000  0.014  0.015
   25  0.000  0.000  0.033  0.033
   26  0.000  0.000  0.033  0.033
   27  0.002  0.000  0.014  0.015
   28  0.011  0.000  0.010  0.021
   29  0.001  0.000  0.017  0.017
   30  0.001  0.000  0.017  0.017
   31  0.001  0.000  0.017  0.017
   32  0.001  0.000  0.017  0.017
   33  0.001  0.000  0.017  0.017
   34  0.001  0.000  0.017  0.017
   35  0.000  0.000  0.004  0.005
   36  0.000  0.000  0.000  0.000
tot    0.065  0.007  0.769  0.840
 
band    16 # energy   -4.84119691 # occ.  2.00000000
 
ion      s      p      d    tot
    1  0.000  0.000  0.007  0.007
    2  0.000  0.000  0.008  0.009
    3  0.001  0.000  0.006  0.007
    4  0.004  0.001  0.005  0.009
    5  0.000  0.000  0.012  0.012
    6  0.002  0.000  0.005  0.007
    7  0.004  0.001  0.005  0.010
    8  0.001  0.001  0.008  0.010
    9  0.000  0.000  0.008  0.009
   10  0.007  0.000  0.023  0.031
   11  0.000  0.000  0.028  0.029
   12  0.000  0.000  0.039  0.040
   13  0.000  0.000  0.018  0.018
   14  0.000  0.000  0.025  0.026
   15  0.010  0.000  0.017  0.027
   16  0.010  0.000  0.017  0.027
   17  0.000  0.000  0.057  0.057
   18  0.007  0.000  0.029  0.036
   19  0.002  0.000  0.031  0.033
   20  0.005  0.000  0.031  0.036
   21  0.000  0.001  0.033  0.034
   22  0.000  0.000  0.068  0.069
   23  0.006  0.000  0.030  0.037
   24  0.010  0.000  0.030  0.041
   25  0.001  0.000  0.033  0.034
   26  0.000  0.000  0.037  0.037
   27  0.014  0.000  0.015  0.029
   28  0.000  0.000  0.017  0.017
   29  0.004  0.001  0.008  0.013
   30  0.004  0.001  0.007  0.011
   31  0.000  0.000  0.012  0.012
   32  0.003  0.000  0.008  0.011
   33  0.000  0.000  0.012  0.012
   34  0.003  0.001  0.009  0.013
   35  0.000  0.001  0.007  0.008
   36  0.000  0.000  0.002  0.003
tot    0.100  0.011  0.708  0.819
 
band    17 # energy   -4.84119199 # occ.  2.00000000
 
ion      s      p      d    tot
    1  0.000  0.000  0.007  0.007
    2  0.004  0.001  0.004  0.009
    3  0.003  0.001  0.006  0.010
    4  0.000  0.000  0.008  0.008
    5  0.000  0.000  0.012  0.012
    6  0.002  0.001  0.007  0.010
    7  0.000  0.000  0.007  0.008
    8  0.003  0.000  0.005  0.008
    9  0.000  0.000  0.008  0.009
   10  0.005  0.000  0.029  0.034
   11  0.000  0.000  0.020  0.020
   12  0.012  0.000  0.013  0.025
   13  0.000  0.000  0.030  0.030
   14  0.000  0.000  0.023  0.023
   15  0.002  0.000  0.051  0.053
   16  0.002  0.000  0.036  0.038
   17  0.011  0.000  0.012  0.023
   18  0.004  0.000  0.040  0.044
   19  0.000  0.000  0.036  0.036
   20  0.003  0.000  0.032  0.035
   21  0.007  0.000  0.030  0.037
   22  0.016  0.000  0.007  0.023
   23  0.001  0.001  0.033  0.034
   24  0.006  0.000  0.045  0.052
   25  0.001  0.000  0.034  0.035
   26  0.002  0.000  0.030  0.032
   27  0.002  0.000  0.061  0.063
   28  0.000  0.000  0.017  0.017
   29  0.001  0.000  0.011  0.011
   30  0.001  0.000  0.012  0.013
   31  0.005  0.001  0.007  0.012
   32  0.002  0.001  0.011  0.013
   33  0.005  0.001  0.006  0.012
   34  0.002  0.000  0.009  0.011
   35  0.000  0.001  0.007  0.008
   36  0.000  0.000  0.002  0.003
tot    0.100  0.011  0.708  0.819
 
band    18 # energy   -4.83023068 # occ.  2.00000000
 
ion      s      p      d    tot
    1  0.003  0.000  0.000  0.003
    2  0.000  0.000  0.008  0.008
    3  0.000  0.000  0.008  0.008
    4  0.000  0.000  0.008  0.008
    5  0.000  0.000  0.003  0.003
    6  0.000  0.000  0.008  0.008
    7  0.000  0.000  0.008  0.008
    8  0.000  0.000  0.008  0.008
    9  0.003  0.000  0.004  0.008
   10  0.001  0.000  0.017  0.018
   11  0.001  0.000  0.022  0.023
   12  0.001  0.000  0.016  0.017
   13  0.001  0.000  0.022  0.023
   14  0.001  0.000  0.022  0.023
   15  0.000  0.000  0.040  0.040
   16  0.001  0.000  0.016  0.017
   17  0.000  0.000  0.040  0.040
   18  0.000  0.000  0.040  0.040
   19  0.005  0.000  0.040  0.046
   20  0.005  0.000  0.018  0.023
   21  0.005  0.000  0.017  0.022
   22  0.000  0.000  0.071  0.071
   23  0.005  0.000  0.017  0.022
   24  0.000  0.000  0.071  0.072
   25  0.005  0.000  0.040  0.045
   26  0.005  0.000  0.040  0.046
   27  0.000  0.000  0.071  0.071
   28  0.001  0.001  0.009  0.010
   29  0.000  0.000  0.015  0.016
   30  0.000  0.000  0.015  0.015
   31  0.000  0.000  0.015  0.016
   32  0.000  0.000  0.015  0.016
   33  0.000  0.000  0.015  0.015
   34  0.000  0.000  0.015  0.015
   35  0.003  0.000  0.012  0.015
   36  0.002  0.001  0.000  0.003
tot    0.048  0.007  0.790  0.845
 
band    19 # energy   -4.82905537 # occ.  2.00000000
 
ion      s      p      d    tot
    1  0.000  0.000  0.007  0.007
    2  0.001  0.000  0.008  0.008
    3  0.000  0.000  0.007  0.007
    4  0.000  0.000  0.008  0.009
    5  0.000  0.000  0.003  0.003
    6  0.002  0.000  0.004  0.006
    7  0.000  0.000  0.007  0.008
    8  0.002  0.000  0.004  0.006
    9  0.000  0.000  0.015  0.015
   10  0.001  0.000  0.044  0.045
   11  0.001  0.000  0.049  0.050
   12  0.000  0.000  0.013  0.014
   13  0.001  0.000  0.054  0.055
   14  0.003  0.000  0.013  0.016
   15  0.002  0.000  0.061  0.063
   16  0.000  0.000  0.017  0.018
   17  0.002  0.000  0.066  0.067
   18  0.008  0.000  0.022  0.030
   19  0.001  0.000  0.056  0.057
   20  0.000  0.000  0.040  0.040
   21  0.000  0.000  0.015  0.015
   22  0.001  0.000  0.046  0.048
   23  0.000  0.000  0.018  0.018
   24  0.005  0.000  0.032  0.037
   25  0.004  0.000  0.009  0.013
   26  0.001  0.000  0.062  0.063
   27  0.001  0.000  0.045  0.046
   28  0.000  0.000  0.008  0.008
   29  0.001  0.000  0.009  0.011
   30  0.001  0.000  0.006  0.008
   31  0.002  0.000  0.009  0.010
   32  0.000  0.000  0.009  0.009
   33  0.002  0.000  0.006  0.008
   34  0.000  0.000  0.010  0.010
   35  0.000  0.000  0.019  0.019
   36  0.000  0.000  0.001  0.001
tot    0.042  0.006  0.801  0.849
 
band    20 # energy   -4.82903993 # occ.  2.00000000
 
ion      s      p      d    tot
    1  0.000  0.000  0.007  0.007
    2  0.001  0.000  0.005  0.006
    3  0.001  0.000  0.006  0.008
    4  0.001  0.000  0.004  0.006
    5  0.000  0.000  0.003  0.003
    6  0.000  0.000  0.009  0.009
    7  0.001  0.000  0.006  0.007
    8  0.000  0.000  0.008  0.009
    9  0.000  0.000  0.015  0.015
   10  0.000  0.000  0.005  0.006
   11  0.002  0.000  0.028  0.030
   12  0.001  0.000  0.036  0.037
   13  0.002  0.000  0.023  0.026
   14  0.000  0.000  0.065  0.065
   15  0.006  0.000  0.038  0.044
   16  0.001  0.000  0.033  0.034
   17  0.006  0.000  0.033  0.040
   18  0.000  0.000  0.077  0.077
   19  0.003  0.000  0.029  0.032
   20  0.000  0.000  0.008  0.008
   21  0.000  0.000  0.034  0.034
   22  0.004  0.000  0.036  0.040
   23  0.000  0.000  0.031  0.031
   24  0.000  0.000  0.050  0.050
   25  0.000  0.000  0.076  0.076
   26  0.003  0.000  0.023  0.026
   27  0.003  0.000  0.038  0.041
   28  0.000  0.000  0.008  0.008
   29  0.001  0.000  0.007  0.008
   30  0.001  0.000  0.010  0.011
   31  0.000  0.000  0.008  0.008
   32  0.002  0.000  0.007  0.009
   33  0.000  0.000  0.010  0.011
   34  0.002  0.000  0.007  0.009
   35  0.000  0.000  0.019  0.019
   36  0.000  0.000  0.001  0.001
tot    0.042  0.006  0.801  0.849
 
band    21 # energy   -4.68771585 # occ.  2.00000000
 
ion      s      p      d    tot
    1  0.001  0.000  0.001  0.002
    2  0.000  0.000  0.006  0.006
    3  0.000  0.000  0.006  0.006
    4  0.000  0.000  0.006  0.006
    5  0.001  0.001  0.012  0.013
    6  0.000  0.000  0.006  0.006
    7  0.000  0.000  0.006  0.006
    8  0.000  0.000  0.006  0.006
    9  0.003  0.001  0.002  0.006
   10  0.001  0.000  0.016  0.017
   11  0.000  0.001  0.069  0.070
   12  0.001  0.000  0.016  0.017
   13  0.000  0.001  0.069  0.070
   14  0.000  0.001  0.069  0.070
   15  0.000  0.000  0.029  0.030
   16  0.001  0.000  0.016  0.017
   17  0.000  0.000  0.029  0.030
   18  0.000  0.000  0.029  0.030
   19  0.000  0.000  0.031  0.031
   20  0.002  0.000  0.062  0.064
   21  0.002  0.000  0.062  0.064
   22  0.002  0.000  0.020  0.022
   23  0.002  0.000  0.062  0.064
   24  0.002  0.000  0.020  0.022
   25  0.000  0.000  0.031  0.031
   26  0.000  0.000  0.031  0.031
   27  0.002  0.000  0.020  0.022
   28  0.004  0.001  0.003  0.009
   29  0.000  0.000  0.014  0.014
   30  0.000  0.000  0.014  0.014
   31  0.000  0.000  0.014  0.014
   32  0.000  0.000  0.014  0.014
   33  0.000  0.000  0.014  0.014
   34  0.000  0.000  0.014  0.014
   35  0.005  0.001  0.001  0.006
   36  0.000  0.000  0.002  0.002
tot    0.027  0.014  0.820  0.861
 
band    22 # energy   -4.68419038 # occ.  2.00000000
 
ion      s      p      d    tot
    1  0.000  0.000  0.003  0.003
    2  0.001  0.001  0.005  0.007
    3  0.000  0.000  0.008  0.009
    4  0.001  0.001  0.005  0.007
    5  0.000  0.001  0.018  0.018
    6  0.000  0.000  0.007  0.007
    7  0.000  0.000  0.008  0.009
    8  0.001  0.000  0.006  0.007
    9  0.000  0.000  0.006  0.006
   10  0.000  0.001  0.021  0.021
   11  0.001  0.000  0.060  0.061
   12  0.000  0.000  0.046  0.046
   13  0.001  0.000  0.064  0.065
   14  0.003  0.000  0.045  0.049
   15  0.001  0.000  0.010  0.011
   16  0.000  0.000  0.041  0.041