PROCAR new format
# of k-points:   10         # of bands:  252         # of ions:   37

 k-point     1 :    0.00000000 0.00000000 0.00000000     weight = 0.01562500

band     1 # energy  -11.82289711 # occ.  2.00000000
 
ion      s      p      d    tot
    1  0.000  0.000  0.000  0.000
    2  0.000  0.000  0.000  0.000
    3  0.000  0.000  0.000  0.000
    4  0.000  0.000  0.000  0.000
    5  0.000  0.000  0.000  0.000
    6  0.000  0.000  0.000  0.000
    7  0.000  0.000  0.000  0.000
    8  0.000  0.000  0.000  0.000
    9  0.000  0.000  0.000  0.000
   10  0.000  0.000  0.000  0.000
   11  0.000  0.000  0.000  0.000
   12  0.000  0.000  0.000  0.000
   13  0.000  0.000  0.000  0.000
   14  0.000  0.000  0.000  0.000
   15  0.000  0.000  0.000  0.000
   16  0.000  0.000  0.000  0.000
   17  0.000  0.000  0.000  0.000
   18  0.000  0.000  0.000  0.000
   19  0.000  0.000  0.000  0.000
   20  0.000  0.000  0.000  0.001
   21  0.000  0.000  0.000  0.001
   22  0.000  0.000  0.000  0.000
   23  0.000  0.000  0.000  0.001
   24  0.000  0.000  0.000  0.000
   25  0.000  0.000  0.000  0.000
   26  0.000  0.000  0.000  0.000
   27  0.000  0.000  0.000  0.000
   28  0.000  0.000  0.000  0.000
   29  0.000  0.000  0.000  0.001
   30  0.000  0.000  0.000  0.001
   31  0.000  0.000  0.000  0.001
   32  0.000  0.000  0.000  0.001
   33  0.000  0.000  0.000  0.001
   34  0.000  0.000  0.000  0.001
   35  0.000  0.000  0.000  0.000
   36  0.088  0.096  0.143  0.327
   37  0.633  0.011  0.000  0.644
tot    0.725  0.108  0.146  0.979
 
band     2 # energy   -8.17403489 # occ.  2.00000000
 
ion      s      p      d    tot
    1  0.007  0.001  0.000  0.007
    2  0.007  0.001  0.000  0.007
    3  0.007  0.001  0.000  0.007
    4  0.007  0.001  0.000  0.007
    5  0.007  0.001  0.000  0.007
    6  0.007  0.001  0.000  0.007
    7  0.007  0.001  0.000  0.007
    8  0.007  0.001  0.000  0.007
    9  0.007  0.001  0.000  0.007
   10  0.027  0.000  0.000  0.027
   11  0.028  0.000  0.000  0.028
   12  0.027  0.000  0.000  0.027
   13  0.028  0.000  0.000  0.028
   14  0.028  0.000  0.000  0.028
   15  0.027  0.000  0.000  0.027
   16  0.027  0.000  0.000  0.027
   17  0.027  0.000  0.000  0.027
   18  0.027  0.000  0.000  0.027
   19  0.023  0.000  0.000  0.024
   20  0.026  0.000  0.000  0.027
   21  0.026  0.000  0.000  0.027
   22  0.024  0.000  0.000  0.025
   23  0.026  0.000  0.000  0.027
   24  0.024  0.000  0.000  0.025
   25  0.023  0.000  0.000  0.024
   26  0.023  0.000  0.000  0.024
   27  0.024  0.000  0.000  0.025
   28  0.005  0.000  0.000  0.005
   29  0.004  0.000  0.000  0.005
   30  0.004  0.000  0.000  0.005
   31  0.004  0.000  0.000  0.005
   32  0.004  0.000  0.000  0.005
   33  0.004  0.000  0.000  0.005
   34  0.004  0.000  0.000  0.005
   35  0.004  0.000  0.000  0.005
   36  0.003  0.002  0.000  0.006
   37  0.002  0.000  0.000  0.002
tot    0.564  0.014  0.004  0.582
 
band     3 # energy   -6.98377202 # occ.  2.00000000
 
ion      s      p      d    tot
    1  0.017  0.000  0.001  0.019
    2  0.017  0.000  0.001  0.019
    3  0.017  0.000  0.001  0.019
    4  0.017  0.000  0.001  0.019
    5  0.017  0.000  0.001  0.018
    6  0.017  0.000  0.001  0.019
    7  0.017  0.000  0.001  0.019
    8  0.017  0.000  0.001  0.019
    9  0.017  0.000  0.001  0.019
   10  0.010  0.002  0.002  0.014
   11  0.009  0.002  0.003  0.014
   12  0.010  0.002  0.002  0.014
   13  0.009  0.002  0.003  0.014
   14  0.009  0.002  0.003  0.014
   15  0.010  0.002  0.003  0.014
   16  0.010  0.002  0.002  0.014
   17  0.010  0.002  0.003  0.014
   18  0.010  0.002  0.003  0.014
   19  0.014  0.001  0.004  0.019
   20  0.016  0.001  0.005  0.022
   21  0.016  0.001  0.005  0.022
   22  0.016  0.001  0.004  0.021
   23  0.016  0.001  0.005  0.022
   24  0.016  0.001  0.004  0.021
   25  0.014  0.001  0.004  0.019
   26  0.014  0.001  0.004  0.019
   27  0.016  0.001  0.004  0.021
   28  0.014  0.001  0.000  0.014
   29  0.012  0.001  0.001  0.014
   30  0.012  0.001  0.001  0.014
   31  0.012  0.001  0.001  0.014
   32  0.012  0.001  0.001  0.014
   33  0.012  0.001  0.001  0.014
   34  0.012  0.001  0.001  0.014
   35  0.013  0.001  0.000  0.014
   36  0.006  0.003  0.001  0.010
   37  0.002  0.000  0.000  0.002
tot    0.491  0.034  0.077  0.602
 
band     4 # energy   -6.06163459 # occ.  2.00000000
 
ion      s      p      d    tot
    1  0.002  0.001  0.014  0.016
    2  0.009  0.000  0.011  0.019
    3  0.009  0.000  0.011  0.020
    4  0.009  0.000  0.011  0.019
    5  0.003  0.000  0.007  0.011
    6  0.009  0.000  0.011  0.019
    7  0.009  0.000  0.011  0.020
    8  0.009  0.000  0.011  0.019
    9  0.032  0.001  0.004  0.037
   10  0.012  0.001  0.019  0.032
   11  0.015  0.002  0.011  0.029
   12  0.012  0.001  0.019  0.032
   13  0.015  0.002  0.011  0.029
   14  0.015  0.002  0.011  0.029
   15  0.006  0.001  0.018  0.025
   16  0.012  0.001  0.019  0.032
   17  0.006  0.001  0.018  0.025
   18  0.006  0.001  0.018  0.025
   19  0.000  0.001  0.015  0.016
   20  0.018  0.002  0.013  0.032
   21  0.018  0.002  0.013  0.032
   22  0.010  0.002  0.002  0.014
   23  0.018  0.002  0.013  0.032
   24  0.010  0.002  0.002  0.014
   25  0.000  0.001  0.015  0.016
   26  0.000  0.001  0.015  0.016
   27  0.010  0.002  0.002  0.014
   28  0.006  0.000  0.000  0.007
   29  0.003  0.000  0.005  0.008
   30  0.003  0.000  0.005  0.008
   31  0.003  0.000  0.005  0.008
   32  0.003  0.000  0.005  0.008
   33  0.003  0.000  0.005  0.008
   34  0.003  0.000  0.005  0.008
   35  0.012  0.000  0.001  0.014
   36  0.002  0.003  0.003  0.007
   37  0.000  0.000  0.000  0.000
tot    0.311  0.033  0.354  0.698
 
band     5 # energy   -6.04794304 # occ.  2.00000000
 
ion      s      p      d    tot
    1  0.000  0.000  0.007  0.007
    2  0.000  0.000  0.003  0.003
    3  0.000  0.000  0.003  0.003
    4  0.006  0.001  0.003  0.011
    5  0.000  0.001  0.007  0.009
    6  0.005  0.001  0.003  0.008
    7  0.005  0.001  0.004  0.010
    8  0.003  0.001  0.004  0.008
    9  0.000  0.000  0.001  0.001
   10  0.017  0.001  0.016  0.034
   11  0.001  0.003  0.027  0.032
   12  0.025  0.002  0.008  0.035
   13  0.047  0.001  0.012  0.061
   14  0.033  0.002  0.017  0.052
   15  0.000  0.004  0.003  0.007
   16  0.001  0.000  0.032  0.033
   17  0.003  0.001  0.012  0.016
   18  0.002  0.002  0.009  0.013
   19  0.000  0.004  0.003  0.007
   20  0.037  0.002  0.020  0.059
   21  0.053  0.001  0.014  0.068
   22  0.020  0.002  0.008  0.029
   23  0.001  0.003  0.034  0.038
   24  0.014  0.001  0.015  0.030
   25  0.004  0.002  0.009  0.014
   26  0.005  0.001  0.012  0.018
   27  0.001  0.000  0.031  0.031
   28  0.000  0.000  0.001  0.001
   29  0.003  0.001  0.004  0.008
   30  0.006  0.001  0.004  0.011
   31  0.005  0.001  0.003  0.009
   32  0.007  0.001  0.003  0.011
   33  0.001  0.000  0.002  0.003
   34  0.000  0.000  0.003  0.003
   35  0.000  0.000  0.005  0.005
   36  0.000  0.003  0.004  0.007
   37  0.000  0.000  0.000  0.000
tot    0.307  0.044  0.343  0.694
 
band     6 # energy   -6.04794271 # occ.  2.00000000
 
ion      s      p      d    tot
    1  0.000  0.000  0.007  0.007
    2  0.007  0.001  0.003  0.011
    3  0.006  0.001  0.003  0.011
    4  0.000  0.000  0.003  0.004
    5  0.000  0.001  0.007  0.009
    6  0.002  0.001  0.003  0.006
    7  0.001  0.000  0.003  0.004
    8  0.003  0.001  0.003  0.007
    9  0.000  0.000  0.001  0.001
   10  0.011  0.001  0.022  0.034
   11  0.053  0.001  0.011  0.065
   12  0.004  0.000  0.029  0.033
   13  0.007  0.003  0.026  0.035
   14  0.021  0.002  0.021  0.045
   15  0.004  0.000  0.013  0.017
   16  0.028  0.002  0.005  0.036
   17  0.000  0.003  0.004  0.008
   18  0.001  0.002  0.007  0.011
   19  0.006  0.000  0.013  0.019
   20  0.024  0.002  0.025  0.051
   21  0.008  0.003  0.031  0.041
   22  0.003  0.000  0.028  0.031
   23  0.060  0.001  0.011  0.072
   24  0.009  0.001  0.021  0.030
   25  0.002  0.002  0.007  0.012
   26  0.001  0.003  0.004  0.008
   27  0.022  0.002  0.005  0.029
   28  0.000  0.000  0.001  0.001
   29  0.004  0.001  0.002  0.007
   30  0.002  0.000  0.002  0.004
   31  0.002  0.001  0.003  0.006
   32  0.000  0.000  0.003  0.004
   33  0.007  0.001  0.004  0.012
   34  0.007  0.001  0.004  0.012
   35  0.000  0.000  0.005  0.005
   36  0.000  0.003  0.004  0.007
   37  0.000  0.000  0.000  0.000
tot    0.307  0.044  0.343  0.694
 
band     7 # energy   -6.04241394 # occ.  2.00000000
 
ion      s      p      d    tot
    1  0.023  0.000  0.009  0.032
    2  0.012  0.000  0.015  0.027
    3  0.012  0.000  0.015  0.027
    4  0.012  0.000  0.015  0.027
    5  0.019  0.000  0.013  0.032
    6  0.012  0.000  0.015  0.027
    7  0.012  0.000  0.015  0.027
    8  0.012  0.000  0.015  0.027
    9  0.002  0.001  0.018  0.020
   10  0.001  0.000  0.032  0.033
   11  0.001  0.001  0.023  0.025
   12  0.001  0.000  0.032  0.033
   13  0.001  0.001  0.023  0.025
   14  0.001  0.001  0.023  0.025
   15  0.029  0.001  0.014  0.044
   16  0.001  0.000  0.032  0.033
   17  0.029  0.001  0.014  0.044
   18  0.030  0.001  0.014  0.044
   19  0.000  0.000  0.014  0.015
   20  0.014  0.000  0.011  0.025
   21  0.014  0.000  0.011  0.025
   22  0.003  0.001  0.008  0.012
   23  0.014  0.000  0.011  0.025
   24  0.003  0.001  0.008  0.012
   25  0.000  0.000  0.014  0.015
   26  0.000  0.000  0.014  0.015
   27  0.003  0.001  0.008  0.012
   28  0.000  0.000  0.000  0.000
   29  0.000  0.000  0.002  0.002
   30  0.000  0.000  0.002  0.002
   31  0.000  0.000  0.002  0.002
   32  0.000  0.000  0.002  0.002
   33  0.000  0.000  0.002  0.002
   34  0.000  0.000  0.002  0.002
   35  0.002  0.000  0.000  0.002
   36  0.002  0.002  0.001  0.006
   37  0.000  0.000  0.000  0.001
tot    0.268  0.020  0.442  0.729
 
band     8 # energy   -6.01509483 # occ.  2.00000000
 
ion      s      p      d    tot
    1  0.009  0.001  0.000  0.011
    2  0.000  0.001  0.006  0.007
    3  0.000  0.001  0.006  0.007
    4  0.000  0.001  0.006  0.007
    5  0.014  0.002  0.002  0.017
    6  0.000  0.001  0.006  0.007
    7  0.000  0.001  0.006  0.007
    8  0.000  0.001  0.006  0.007
    9  0.000  0.000  0.001  0.001
   10  0.024  0.003  0.002  0.029
   11  0.022  0.001  0.021  0.044
   12  0.024  0.003  0.002  0.029
   13  0.022  0.001  0.021  0.044
   14  0.022  0.001  0.021  0.044
   15  0.000  0.001  0.023  0.024
   16  0.024  0.003  0.002  0.029
   17  0.000  0.001  0.023  0.024
   18  0.000  0.001  0.023  0.024
   19  0.028  0.002  0.004  0.034
   20  0.004  0.002  0.020  0.026
   21  0.004  0.002  0.020  0.026
   22  0.009  0.000  0.027  0.036
   23  0.004  0.002  0.020  0.026
   24  0.009  0.000  0.027  0.036
   25  0.027  0.002  0.004  0.034
   26  0.028  0.002  0.004  0.034
   27  0.009  0.000  0.027  0.036
   28  0.011  0.001  0.001  0.013
   29  0.000  0.000  0.004  0.004
   30  0.000  0.000  0.004  0.004
   31  0.000  0.000  0.004  0.004
   32  0.000  0.000  0.004  0.004
   33  0.000  0.000  0.004  0.004
   34  0.000  0.000  0.004  0.004
   35  0.005  0.001  0.002  0.008
   36  0.000  0.000  0.000  0.001
   37  0.000  0.000  0.000  0.000
tot    0.298  0.040  0.357  0.695
 
band     9 # energy   -5.98660479 # occ.  2.00000000
 
ion      s      p      d    tot
    1  0.000  0.001  0.004  0.005
    2  0.005  0.001  0.004  0.010
    3  0.007  0.001  0.004  0.012
    4  0.006  0.001  0.004  0.011
    5  0.000  0.000  0.004  0.004
    6  0.000  0.000  0.003  0.004
    7  0.007  0.001  0.004  0.012
    8  0.000  0.000  0.003  0.004
    9  0.000  0.001  0.011  0.012
   10  0.033  0.000  0.016  0.049
   11  0.001  0.002  0.017  0.020
   12  0.007  0.004  0.009  0.020
   13  0.001  0.002  0.018  0.020
   14  0.004  0.001  0.009  0.015
   15  0.017  0.001  0.034  0.052
   16  0.009  0.003  0.009  0.022
   17  0.014  0.001  0.036  0.050
   18  0.060  0.002  0.005  0.067
   19  0.012  0.001  0.027  0.040
   20  0.002  0.001  0.012  0.015
   21  0.000  0.001  0.014  0.016
   22  0.007  0.003  0.013  0.023
   23  0.001  0.001  0.014  0.016
   24  0.030  0.000  0.013  0.043
   25  0.044  0.002  0.003  0.050
   26  0.010  0.001  0.029  0.040
   27  0.008  0.003  0.013  0.024
   28  0.000  0.001  0.007  0.007
   29  0.000  0.000  0.002  0.002
   30  0.003  0.001  0.002  0.005
   31  0.000  0.000  0.002  0.002
   32  0.004  0.001  0.003  0.007
   33  0.002  0.001  0.002  0.005
   34  0.003  0.001  0.003  0.007
   35  0.000  0.001  0.003  0.004
   36  0.000  0.000  0.001  0.001
   37  0.000  0.000  0.000  0.000
tot    0.298  0.041  0.354  0.693
 
band    10 # energy   -5.98659456 # occ.  2.00000000
 
ion      s      p      d    tot
    1  0.000  0.001  0.004  0.005
    2  0.003  0.001  0.003  0.007
    3  0.001  0.001  0.004  0.006
    4  0.003  0.001  0.003  0.007
    5  0.000  0.000  0.004  0.004
    6  0.008  0.001  0.004  0.014
    7  0.001  0.000  0.004  0.005
    8  0.008  0.001  0.004  0.014
    9  0.000  0.001  0.011  0.012
   10  0.000  0.005  0.007  0.011
   11  0.003  0.001  0.012  0.017
   12  0.025  0.001  0.014  0.041
   13  0.003  0.001  0.012  0.016
   14  0.000  0.002  0.020  0.022
   15  0.044  0.001  0.016  0.061
   16  0.024  0.001  0.013  0.038
   17  0.047  0.002  0.014  0.062
   18  0.000  0.001  0.045  0.046
   19  0.032  0.002  0.013  0.046
   20  0.000  0.002  0.015  0.017
   21  0.002  0.001  0.012  0.015
   22  0.023  0.001  0.013  0.037
   23  0.001  0.001  0.013  0.015
   24  0.000  0.004  0.013  0.017
   25  0.000  0.000  0.036  0.037
   26  0.034  0.002  0.011  0.047
   27  0.022  0.001  0.013  0.036
   28  0.000  0.001  0.007  0.007
   29  0.004  0.001  0.002  0.007
   30  0.001  0.000  0.002  0.004
   31  0.004  0.001  0.002  0.007
   32  0.001  0.000  0.001  0.002
   33  0.002  0.000  0.002  0.004
   34  0.001  0.000  0.001  0.002
   35  0.000  0.001  0.003  0.004
   36  0.000  0.000  0.001  0.001
   37  0.000  0.000  0.000  0.000
tot    0.298  0.041  0.354  0.693
 
band    11 # energy   -5.91674681 # occ.  2.00000000
 
ion      s      p      d    tot
    1  0.002  0.000  0.000  0.002
    2  0.000  0.000  0.001  0.001
    3  0.000  0.000  0.001  0.001
    4  0.000  0.000  0.001  0.001
    5  0.002  0.000  0.000  0.002
    6  0.000  0.000  0.001  0.001
    7  0.000  0.000  0.001  0.001
    8  0.000  0.000  0.001  0.001
    9  0.001  0.000  0.001  0.002
   10  0.001  0.000  0.005  0.006
   11  0.001  0.001  0.002  0.004
   12  0.001  0.000  0.005  0.006
   13  0.001  0.001  0.002  0.004
   14  0.001  0.001  0.002  0.004
   15  0.004  0.001  0.004  0.008
   16  0.001  0.000  0.005  0.006
   17  0.004  0.001  0.004  0.008
   18  0.004  0.001  0.004  0.008
   19  0.004  0.001  0.017  0.022
   20  0.001  0.000  0.031  0.033
   21  0.001  0.000  0.031  0.033
   22  0.011  0.002  0.020  0.033
   23  0.001  0.000  0.031  0.033
   24  0.011  0.002  0.020  0.033
   25  0.004  0.001  0.017  0.022
   26  0.004  0.001  0.017  0.022
   27  0.011  0.002  0.020  0.033
   28  0.026  0.000  0.021  0.047
   29  0.025  0.000  0.021  0.045
   30  0.025  0.000  0.021  0.045
   31  0.025  0.000  0.021  0.045
   32  0.025  0.000  0.021  0.045
   33  0.025  0.000  0.021  0.045
   34  0.025  0.000  0.021  0.045
   35  0.024  0.000  0.022  0.046
   36  0.008  0.000  0.012  0.020
   37  0.002  0.000  0.000  0.002
tot    0.283  0.014  0.426  0.723
 
band    12 # energy   -5.56972838 # occ.  2.00000000
 
ion      s      p      d    tot
    1  0.000  0.001  0.004  0.005
    2  0.001  0.001  0.005  0.006
    3  0.009  0.001  0.004  0.015
    4  0.001  0.001  0.005  0.006
    5  0.000  0.001  0.010  0.012
    6  0.005  0.001  0.004  0.009
    7  0.009  0.001  0.005  0.015
    8  0.005  0.001  0.004  0.009
    9  0.000  0.000  0.008  0.008
   10  0.000  0.001  0.051  0.052
   11  0.017  0.001  0.020  0.038
   12  0.008  0.001  0.019  0.028
   13  0.017  0.001  0.020  0.038
   14  0.000  0.000  0.048  0.048
   15  0.002  0.000  0.019  0.021
   16  0.008  0.001  0.019  0.028
   17  0.002  0.000  0.019  0.021
   18  0.000  0.001  0.011  0.012
   19  0.005  0.000  0.018  0.024
   20  0.000  0.000  0.078  0.078
   21  0.016  0.001  0.024  0.041
   22  0.002  0.001  0.019  0.022
   23  0.016  0.001  0.024  0.041
   24  0.000  0.001  0.030  0.031
   25  0.000  0.001  0.013  0.014
   26  0.005  0.000  0.018  0.024
   27  0.002  0.001  0.019  0.022
   28  0.000  0.000  0.008  0.009
   29  0.003  0.001  0.005  0.008
   30  0.010  0.001  0.004  0.015
   31  0.003  0.001  0.005  0.008
   32  0.003  0.001  0.004  0.007
   33  0.010  0.001  0.004  0.015
   34  0.003  0.001  0.004  0.007
   35  0.000  0.000  0.003  0.004
   36  0.000  0.004  0.003  0.007
   37  0.000  0.000  0.000  0.000
tot    0.159  0.033  0.556  0.748
 
band    13 # energy   -5.56971350 # occ.  2.00000000
 
ion      s      p      d    tot
    1  0.000  0.001  0.004  0.005
    2  0.009  0.001  0.004  0.014
    3  0.001  0.000  0.004  0.005
    4  0.009  0.001  0.004  0.014
    5  0.000  0.001  0.010  0.012
    6  0.005  0.001  0.005  0.011
    7  0.001  0.000  0.004  0.005
    8  0.005  0.001  0.005  0.011
    9  0.000  0.000  0.008  0.008
   10  0.009  0.002  0.008  0.019
   11  0.006  0.000  0.038  0.045
   12  0.003  0.001  0.040  0.044
   13  0.006  0.000  0.038  0.045
   14  0.022  0.001  0.012  0.035
   15  0.000  0.001  0.013  0.014
   16  0.003  0.001  0.040  0.044
   17  0.000  0.001  0.013  0.014
   18  0.002  0.000  0.024  0.026
   19  0.002  0.001  0.014  0.016
   20  0.021  0.002  0.007  0.029
   21  0.005  0.000  0.059  0.065
   22  0.001  0.001  0.027  0.029
   23  0.006  0.000  0.059  0.065
   24  0.003  0.001  0.014  0.018
   25  0.007  0.000  0.021  0.029
   26  0.001  0.001  0.014  0.016
   27  0.001  0.001  0.027  0.029
   28  0.000  0.000  0.008  0.009
   29  0.008  0.001  0.003  0.012
   30  0.000  0.000  0.004  0.005
   31  0.008  0.001  0.003  0.012
   32  0.008  0.001  0.004  0.013
   33  0.000  0.000  0.004  0.005
   34  0.008  0.001  0.004  0.013
   35  0.000  0.000  0.003  0.004
   36  0.000  0.004  0.003  0.007
   37  0.000  0.000  0.000  0.000
tot    0.159  0.033  0.556  0.749
 
band    14 # energy   -5.56952722 # occ.  2.00000000
 
ion      s      p      d    tot
    1  0.015  0.002  0.002  0.019
    2  0.000  0.001  0.008  0.009
    3  0.000  0.001  0.008  0.009
    4  0.000  0.001  0.008  0.009
    5  0.000  0.000  0.002  0.002
    6  0.000  0.001  0.008  0.009
    7  0.000  0.001  0.008  0.009
    8  0.000  0.001  0.008  0.009
    9  0.016  0.001  0.000  0.018
   10  0.012  0.001  0.013  0.026
   11  0.002  0.000  0.045  0.047
   12  0.010  0.001  0.013  0.025
   13  0.002  0.000  0.045  0.047
   14  0.003  0.000  0.043  0.046
   15  0.004  0.001  0.023  0.027
   16  0.010  0.001  0.013  0.025
   17  0.004  0.001  0.023  0.027
   18  0.003  0.001  0.020  0.025
   19  0.004  0.001  0.013  0.018
   20  0.001  0.000  0.053  0.055
   21  0.001  0.000  0.054  0.055
   22  0.010  0.001  0.018  0.030
   23  0.001  0.000  0.054  0.055
   24  0.011  0.001  0.020  0.031
   25  0.003  0.001  0.012  0.016
   26  0.004  0.001  0.013  0.018
   27  0.010  0.001  0.019  0.030
   28  0.011  0.001  0.000  0.013
   29  0.000  0.000  0.006  0.006
   30  0.000  0.000  0.005  0.006
   31  0.000  0.000  0.006  0.006
   32  0.000  0.000  0.005  0.006
   33  0.000  0.000  0.005  0.006
   34  0.000  0.000  0.005  0.006
   35  0.007  0.001  0.002  0.011
   36  0.000  0.000  0.001  0.002
   37  0.000  0.000  0.000  0.000
tot    0.147  0.027  0.582  0.756
 
band    15 # energy   -5.51303701 # occ.  2.00000000
 
ion      s      p      d    tot
    1  0.008  0.000  0.001  0.009
    2  0.000  0.001  0.009  0.009
    3  0.000  0.001  0.009  0.009
    4  0.000  0.001  0.009  0.009
    5  0.018  0.002  0.001  0.021
    6  0.000  0.001  0.009  0.009
    7  0.000  0.001  0.009  0.009
    8  0.000  0.001  0.009  0.009
    9  0.003  0.001  0.002  0.006
   10  0.000  0.000  0.042  0.042
   11  0.007  0.002  0.010  0.018
   12  0.000  0.000  0.042  0.042
   13  0.007  0.002  0.010  0.018
   14  0.007  0.002  0.010  0.018
   15  0.007  0.001  0.026  0.035
   16  0.000  0.000  0.042  0.042
   17  0.007  0.001  0.026  0.035
   18  0.007  0.001  0.026  0.035
   19  0.010  0.001  0.041  0.052
   20  0.009  0.002  0.009  0.020
   21  0.009  0.002  0.009  0.020
   22  0.001  0.000  0.036  0.036
   23  0.009  0.002  0.009  0.020
   24  0.001  0.000  0.036  0.036
   25  0.010  0.001  0.041  0.052
   26  0.010  0.001  0.041  0.052
   27  0.001  0.000  0.036  0.036
   28  0.001  0.001  0.007  0.008
   29  0.000  0.000  0.005  0.006
   30  0.000  0.000  0.005  0.006
   31  0.000  0.000  0.005  0.006
   32  0.000  0.000  0.005  0.006
   33  0.000  0.000  0.005  0.006
   34  0.000  0.000  0.005  0.006
   35  0.002  0.000  0.000  0.002
   36  0.011  0.005  0.000  0.016
   37  0.001  0.000  0.000  0.001
tot    0.148  0.031  0.586  0.765
 
band    16 # energy   -5.49695413 # occ.  2.00000000
 
ion      s      p      d    tot
    1  0.000  0.001  0.015  0.015
    2  0.010  0.001  0.005  0.016
    3  0.002  0.000  0.005  0.007
    4  0.010  0.001  0.005  0.016
    5  0.000  0.000  0.005  0.006
    6  0.003  0.001  0.005  0.010
    7  0.002  0.000  0.005  0.007
    8  0.003  0.001  0.005  0.010
    9  0.000  0.001  0.007  0.008
   10  0.000  0.001  0.029  0.030
   11  0.001  0.001  0.020  0.022
   12  0.007  0.000  0.022  0.030
   13  0.001  0.001  0.020  0.022
   14  0.000  0.001  0.019  0.020
   15  0.011  0.002  0.021  0.033
   16  0.007  0.000  0.022  0.030
   17  0.011  0.002  0.020  0.033
   18  0.000  0.000  0.064  0.064
   19  0.013  0.001  0.020  0.034
   20  0.000  0.002  0.021  0.022
   21  0.000  0.001  0.024  0.025
   22  0.018  0.001  0.021  0.039
   23  0.000  0.001  0.024  0.025
   24  0.000  0.000  0.032  0.033
   25  0.000  0.000  0.068  0.068
   26  0.013  0.001  0.020  0.034
   27  0.018  0.001  0.021  0.039
   28  0.000  0.001  0.005  0.005
   29  0.005  0.001  0.003  0.010
   30  0.000  0.000  0.004  0.005
   31  0.005  0.001  0.004  0.010
   32  0.003  0.001  0.002  0.006
   33  0.000  0.000  0.004  0.005
   34  0.003  0.001  0.002  0.006
   35  0.000  0.001  0.007  0.008
   36  0.000  0.000  0.001  0.001
   37  0.000  0.000  0.000  0.000
tot    0.146  0.028  0.579  0.752
 
band    17 # energy   -5.49694103 # occ.  2.00000000
 
ion      s      p      d    tot
    1  0.000  0.001  0.015  0.015
    2  0.000  0.000  0.006  0.006
    3  0.008  0.001  0.005  0.015
    4  0.000  0.000  0.006  0.006
    5  0.000  0.000  0.005  0.006
    6  0.007  0.001  0.005  0.012
    7  0.008  0.001  0.005  0.015
    8  0.007  0.001  0.005  0.012
    9  0.000  0.001  0.007  0.008
   10  0.009  0.000  0.020  0.030
   11  0.000  0.001  0.019  0.021
   12  0.002  0.001  0.027  0.030
   13  0.000  0.001  0.019  0.021
   14  0.001  0.001  0.020  0.022
   15  0.004  0.001  0.049  0.054
   16  0.002  0.001  0.027  0.030
   17  0.004  0.001  0.050  0.054
   18  0.014  0.002  0.006  0.023
   19  0.004  0.001  0.051  0.056
   20  0.000  0.000  0.025  0.025
   21  0.000  0.001  0.022  0.023
   22  0.006  0.001  0.028  0.035
   23  0.000  0.001  0.022  0.023
   24  0.024  0.001  0.017  0.041
   25  0.017  0.001  0.004  0.022
   26  0.004  0.001  0.052  0.057
   27  0.006  0.001  0.028  0.035
   28  0.000  0.001  0.005  0.006
   29  0.001  0.000  0.003  0.004
   30  0.005  0.001  0.002  0.009
   31  0.001  0.000  0.003  0.004
   32  0.002  0.001  0.005  0.008
   33  0.005  0.001  0.002  0.009
   34  0.002  0.001  0.005  0.008
   35  0.000  0.001  0.007  0.008
   36  0.000  0.000  0.001  0.001
   37  0.000  0.000  0.000  0.000
tot    0.146  0.028  0.579  0.752
 
band    18 # energy   -5.18647474 # occ.  2.00000000
 
ion      s      p      d    tot
    1  0.000  0.000  0.015  0.015
    2  0.000  0.000  0.009  0.010
    3  0.005  0.000  0.013  0.018
    4  0.000  0.000  0.009  0.010
    5  0.000  0.000  0.025  0.026
    6  0.007  0.001  0.009  0.016
    7  0.005  0.000  0.013  0.018
    8  0.007  0.001  0.009  0.016
    9  0.000  0.001  0.005  0.006
   10  0.000  0.000  0.016  0.016
   11  0.000  0.000  0.048  0.048
   12  0.000  0.000  0.011  0.011
   13  0.000  0.000  0.048  0.048
   14  0.000  0.000  0.046  0.047
   15  0.000  0.000  0.019  0.020
   16  0.000  0.000  0.011  0.011
   17  0.000  0.000  0.019  0.019
   18  0.000  0.000  0.036  0.036
   19  0.000  0.000  0.011  0.011
   20  0.001  0.000  0.066  0.067
   21  0.000  0.000  0.048  0.048
   22  0.000  0.000  0.033  0.033
   23  0.000  0.000  0.048  0.048
   24  0.000  0.001  0.029  0.030
   25  0.000  0.000  0.013  0.014
   26  0.000  0.000  0.011  0.011
   27  0.000  0.000  0.033  0.033
   28  0.000  0.000  0.013  0.013
   29  0.010  0.001  0.014  0.025
   30  0.000  0.001  0.010  0.011
   31  0.009  0.001  0.014  0.025
   32  0.009  0.001  0.007  0.017
   33  0.000  0.001  0.010  0.011
   34  0.009  0.001  0.007  0.017
   35  0.000  0.000  0.021  0.021
   36  0.000  0.004  0.002  0.006
   37  0.000  0.000  0.000  0.000
tot    0.064  0.017  0.747  0.829
 
band    19 # energy   -5.18647021 # occ.  2.00000000
 
ion      s      p      d    tot
    1  0.000  0.000  0.015  0.015
    2  0.007  0.000  0.011  0.019
    3  0.003  0.001  0.007  0.011
    4  0.007  0.000  0.011  0.019
    5  0.000  0.000  0.025  0.026
    6  0.001  0.000  0.012  0.013
    7  0.003  0.001  0.007  0.011
    8  0.001  0.000  0.012  0.013
    9  0.000  0.001  0.005  0.006
   10  0.000  0.000  0.009  0.009
   11  0.000  0.000  0.047  0.047
   12  0.000  0.000  0.014  0.015
   13  0.000  0.000  0.047  0.047
   14  0.000  0.000  0.048  0.048
   15  0.000  0.000  0.030  0.031
   16  0.000  0.000  0.014  0.015
   17  0.000  0.000  0.031  0.031
   18  0.000  0.000  0.014  0.014
   19  0.000  0.000  0.012  0.013
   20  0.000  0.000  0.042  0.042
   21  0.001  0.000  0.060  0.061
   22  0.000  0.000  0.030  0.031
   23  0.001  0.000  0.060  0.061
   24  0.000  0.000  0.034  0.034
   25  0.000  0.000  0.010  0.010
   26  0.000  0.000  0.012  0.013
   27  0.000  0.000  0.030  0.031
   28  0.000  0.000  0.013  0.013
   29  0.003  0.001  0.006  0.010
   30  0.012  0.001  0.011  0.024
   31  0.003  0.001  0.006  0.010
   32  0.003  0.001  0.014  0.018
   33  0.012  0.001  0.011  0.024
   34  0.003  0.001  0.014  0.018
   35  0.000  0.000  0.021  0.021
   36  0.000  0.004  0.002  0.006
   37  0.000  0.000  0.000  0.000
tot    0.064  0.017  0.747  0.829
 
band    20 # energy   -5.16757619 # occ.  2.00000000
 
ion      s      p      d    tot
    1  0.010  0.000  0.006  0.016
    2  0.000  0.001  0.010  0.010
    3  0.000  0.001  0.010  0.010
    4  0.000  0.001  0.010  0.010
    5  0.000  0.000  0.011  0.012
    6  0.000  0.001  0.010  0.010
    7  0.000  0.001  0.010  0.010
    8  0.000  0.001  0.010  0.010
    9  0.012  0.001  0.000  0.013
   10  0.000  0.000  0.026  0.027
   11  0.000  0.000  0.049  0.049
   12  0.000  0.000  0.026  0.026
   13  0.000  0.000  0.049  0.049
   14  0.000  0.000  0.049  0.049
   15  0.000  0.000  0.029  0.030
   16  0.000  0.000  0.026  0.026
   17  0.000  0.000  0.029  0.030
   18  0.000  0.000  0.029  0.030
   19  0.000  0.000  0.022  0.022
   20  0.001  0.000  0.048  0.050
   21  0.001  0.000  0.048  0.050
   22  0.000  0.000  0.029  0.029
   23  0.001  0.000  0.048  0.050
   24  0.000  0.000  0.029  0.029
   25  0.000  0.000  0.022  0.022
   26  0.000  0.000  0.022  0.022
   27  0.000  0.000  0.029  0.029
   28  0.006  0.000  0.001  0.007
   29  0.000  0.001  0.012  0.013
   30  0.000  0.001  0.012  0.013
   31  0.000  0.001  0.012  0.013
   32  0.000  0.001  0.012  0.013
   33  0.000  0.001  0.012  0.013
   34  0.000  0.001  0.012  0.013
   35  0.014  0.001  0.002  0.016
   36  0.001  0.000  0.005  0.007
   37  0.000  0.000  0.000  0.000
tot    0.049  0.015  0.768  0.833
 
band    21 # energy   -5.15127370 # occ.  2.00000000
 
ion      s      p      d    tot
    1  0.004  0.001  0.003  0.008
    2  0.000  0.001  0.020  0.021
    3  0.000  0.001  0.020  0.021
    4  0.000  0.001  0.020  0.021
    5  0.026  0.001  0.002  0.030
    6  0.000  0.001  0.020  0.021
    7  0.000  0.001  0.020  0.021
    8  0.000  0.001  0.020  0.021
    9  0.011  0.000  0.012  0.023
   10  0.000  0.000  0.036  0.036
   11  0.000  0.001  0.027  0.027
   12  0.000  0.000  0.036  0.036
   13  0.000  0.001  0.027  0.027
   14  0.000  0.001  0.027  0.027
   15  0.000  0.000  0.034  0.034
   16  0.000  0.000  0.036  0.036
   17  0.000  0.000  0.034  0.034
   18  0.000  0.000  0.034  0.034
   19  0.001  0.000  0.025  0.026
   20  0.000  0.000  0.025  0.025
   21  0.000  0.000  0.025  0.025
   22  0.001  0.000  0.018  0.019
   23  0.000  0.000  0.025  0.025
   24  0.001  0.000  0.018  0.019
   25  0.001  0.000  0.025  0.026
   26  0.001  0.000  0.025  0.026
   27  0.001  0.000  0.018  0.019
   28  0.013  0.000  0.007  0.020
   29  0.000  0.000  0.016  0.017
   30  0.000  0.000  0.016  0.017
   31  0.000  0.000  0.016  0.017
   32  0.000  0.000  0.016  0.017
   33  0.000  0.000  0.016  0.017
   34  0.000  0.000  0.016  0.017
   35  0.002  0.000  0.005  0.008
   36  0.004  0.001  0.000  0.006