 vasp.6.2.0 18Jan21 (build Jun 12 2021 23:27:24) complex                        
  
 executed on             LinuxIFC date 2022.05.27  05:56:04
 running on   16 total cores
 distrk:  each k-point on   16 cores,    1 groups
 distr:  one band on NCORE=   1 cores,   16 groups


--------------------------------------------------------------------------------------------------------


 INCAR:
   ISMEAR = -5
   SIGMA = 0.1
   ISPIN = 1
   EDIFF = 1.d-5
   EDIFFG = -0.01
   NSW = 0
   NELM = 150
   ENCUT = 500
   ISIF = 2
   IBRION = 2
   LREAL = Auto
   ALGO = Fast
   ICHARG = 11
   LORBIT = 10
   LCHARG = .F.
   LWAVE = .F.

 POTCAR:    PAW_PBE Ag 02Apr2005                  
 POTCAR:    PAW_PBE Pt 04Feb2005                  
 POTCAR:    PAW_PBE N 08Apr2002                   
 -----------------------------------------------------------------------------
|                                                                             |
|           W    W    AA    RRRRR   N    N  II  N    N   GGGG   !!!           |
|           W    W   A  A   R    R  NN   N  II  NN   N  G    G  !!!           |
|           W    W  A    A  R    R  N N  N  II  N N  N  G       !!!           |
|           W WW W  AAAAAA  RRRRR   N  N N  II  N  N N  G  GGG   !            |
|           WW  WW  A    A  R   R   N   NN  II  N   NN  G    G                |
|           W    W  A    A  R    R  N    N  II  N    N   GGGG   !!!           |
|                                                                             |
|     For optimal performance we recommend to set                             |
|       NCORE = 2 up to number-of-cores-per-socket                            |
|     NCORE specifies how many cores store one orbital (NPAR=cpu/NCORE).      |
|     This setting can greatly improve the performance of VASP for DFT.       |
|     The default, NCORE=1 might be grossly inefficient on modern             |
|     multi-core architectures or massively parallel machines. Do your        |
|     own testing! More info at https://www.vasp.at/wiki/index.php/NCORE      |
|     Unfortunately you need to use the default for GW and RPA                |
|     calculations (for HF NCORE is supported but not extensively tested      |
|     yet).                                                                   |
|                                                                             |
 -----------------------------------------------------------------------------

 POTCAR:    PAW_PBE Ag 02Apr2005                  
   VRHFIN =Ag : s1 d10                                                                              
   LEXCH  = PE                                                                                      
   EATOM  =  1037.2675 eV,   76.2370 Ry                                                             
                                                                                                    
   TITEL  = PAW_PBE Ag 02Apr2005                                                                    
   LULTRA =        F    use ultrasoft PP ?                                                          
   IUNSCR =        1    unscreen: 0-lin 1-nonlin 2-no                                               
   RPACOR =    2.000    partial core radius                                                         
   POMASS =  107.868; ZVAL   =   11.000    mass and valenz                                          
   RCORE  =    2.500    outmost cutoff radius                                                       
   RWIGS  =    2.840; RWIGS  =    1.503    wigner-seitz radius (au A)                               
   ENMAX  =  249.844; ENMIN  =  187.383 eV                                                          
   ICORE  =        3    local potential                                                             
   LCOR   =        T    correct aug charges                                                         
   LPAW   =        T    paw PP                                                                      
   EAUG   =  412.496                                                                                
   DEXC   =    0.000                                                                                
   RMAX   =    2.560    core radius for proj-oper                                                   
   RAUG   =    1.300    factor for augmentation sphere                                              
   RDEP   =    2.576    radius for radial grids                                                     
   RDEPT  =    2.072    core radius for aug-charge                                                  
                                                                                                    
   Atomic configuration                                                                             
   12 entries                                                                                       
     n  l   j            E        occ.                                                              
     1  0  0.50    -25324.9161   2.0000                                                             
     2  0  0.50     -3728.5341   2.0000                                                             
     2  1  1.50     -3344.0404   6.0000                                                             
     3  0  0.50      -683.5581   2.0000                                                             
     3  1  1.50      -557.3225   6.0000                                                             
     3  2  2.50      -358.3853  10.0000                                                             
     4  0  0.50       -95.0341   2.0000                                                             
     4  1  1.50       -58.5511   6.0000                                                             
     4  2  2.50        -7.4440  10.0000                                                             
     5  0  0.50        -4.4045   1.0000                                                             
     5  1  0.50        -1.3606   0.0000                                                             
     4  3  2.50        -1.3606   0.0000                                                             
   Description                                                                                      
     l       E           TYP  RCUT    TYP  RCUT                                                     
     2     -7.4439781     23  2.400                                                                 
     2     -8.8045607     23  2.400                                                                 
     0     -4.4044681     23  2.400                                                                 
     0      1.9520038     23  2.400                                                                 
     1     -1.3605826     23  2.500                                                                 
     1     27.2116520     23  2.500                                                                 
     3     -4.0817478     23  2.400                                                                 
  local pseudopotential read in
  partial core-charges read in
  partial kinetic energy density read in
  atomic valenz-charges read in
  non local Contribution for L=           2  read in
    real space projection operators read in
  non local Contribution for L=           2  read in
    real space projection operators read in
  non local Contribution for L=           0  read in
    real space projection operators read in
  non local Contribution for L=           0  read in
    real space projection operators read in
  non local Contribution for L=           1  read in
    real space projection operators read in
  non local Contribution for L=           1  read in
    real space projection operators read in
    PAW grid and wavefunctions read in
 
   number of l-projection  operators is LMAX  =           6
   number of lm-projection operators is LMMAX =          18
 
 POTCAR:    PAW_PBE Pt 04Feb2005                  
   VRHFIN =Pt: s1d9                                                                                 
   LEXCH  = PE                                                                                      
   EATOM  =   729.1176 eV,   53.5886 Ry                                                             
                                                                                                    
   TITEL  = PAW_PBE Pt 04Feb2005                                                                    
   LULTRA =        F    use ultrasoft PP ?                                                          
   IUNSCR =        1    unscreen: 0-lin 1-nonlin 2-no                                               
   RPACOR =    2.330    partial core radius                                                         
   POMASS =  195.080; ZVAL   =   10.000    mass and valenz                                          
   RCORE  =    2.600    outmost cutoff radius                                                       
   RWIGS  =    2.750; RWIGS  =    1.455    wigner-seitz radius (au A)                               
   ENMAX  =  230.283; ENMIN  =  172.712 eV                                                          
   ICORE  =        3    local potential                                                             
   LCOR   =        T    correct aug charges                                                         
   LPAW   =        T    paw PP                                                                      
   EAUG   =  358.966                                                                                
   DEXC   =    0.000                                                                                
   RMAX   =    2.658    core radius for proj-oper                                                   
   RAUG   =    1.300    factor for augmentation sphere                                              
   RDEP   =    2.761    radius for radial grids                                                     
   RDEPT  =    2.203    core radius for aug-charge                                                  
                                                                                                    
   Atomic configuration                                                                             
   16 entries                                                                                       
     n  l   j            E        occ.                                                              
     1  0  0.50    -78401.1885   2.0000                                                             
     2  0  0.50    -13770.7750   2.0000                                                             
     2  1  1.50    -11931.0468   6.0000                                                             
     3  0  0.50     -3234.7234   2.0000                                                             
     3  1  1.50     -2699.2216   6.0000                                                             
     3  2  2.50     -2119.5714  10.0000                                                             
     4  0  0.50      -695.1528   2.0000                                                             
     4  1  1.50      -519.6034   6.0000                                                             
     4  2  2.50      -306.6786  10.0000                                                             
     4  3  3.50       -70.1041  14.0000                                                             
     5  0  0.50      -101.7747   2.0000                                                             
     5  1  1.50       -55.9873   6.0000                                                             
     5  2  2.50        -6.1423   9.0000                                                             
     6  0  0.50        -5.6573   1.0000                                                             
     6  1  1.50        -6.8029   0.0000                                                             
     5  3  2.50        -1.3606   0.0000                                                             
   Description                                                                                      
     l       E           TYP  RCUT    TYP  RCUT                                                     
     2     -6.1423404     23  2.500                                                                 
     2     -7.5029230     23  2.500                                                                 
     0     -5.6573207     23  2.500                                                                 
     0      0.7416693     23  2.500                                                                 
     1     -2.7211652     23  2.600                                                                 
     1     20.4087390     23  2.600                                                                 
     3     -1.3605826     23  2.500                                                                 
  local pseudopotential read in
  partial core-charges read in
  partial kinetic energy density read in
  atomic valenz-charges read in
  non local Contribution for L=           2  read in
    real space projection operators read in
  non local Contribution for L=           2  read in
    real space projection operators read in
  non local Contribution for L=           0  read in
    real space projection operators read in
  non local Contribution for L=           0  read in
    real space projection operators read in
  non local Contribution for L=           1  read in
    real space projection operators read in
  non local Contribution for L=           1  read in
    real space projection operators read in
    PAW grid and wavefunctions read in
 
   number of l-projection  operators is LMAX  =           6
   number of lm-projection operators is LMMAX =          18
 
 POTCAR:    PAW_PBE N 08Apr2002                   
   VRHFIN =N: s2p3                                                                                  
   LEXCH  = PE                                                                                      
   EATOM  =   264.5486 eV,   19.4438 Ry                                                             
                                                                                                    
   TITEL  = PAW_PBE N 08Apr2002                                                                     
   LULTRA =        F    use ultrasoft PP ?                                                          
   IUNSCR =        1    unscreen: 0-lin 1-nonlin 2-no                                               
   RPACOR =    1.200    partial core radius                                                         
   POMASS =   14.001; ZVAL   =    5.000    mass and valenz                                          
   RCORE  =    1.500    outmost cutoff radius                                                       
   RWIGS  =    1.400; RWIGS  =    0.741    wigner-seitz radius (au A)                               
   ENMAX  =  400.000; ENMIN  =  300.000 eV                                                          
   ICORE  =        2    local potential                                                             
   LCOR   =        T    correct aug charges                                                         
   LPAW   =        T    paw PP                                                                      
   EAUG   =  627.112                                                                                
   DEXC   =    0.000                                                                                
   RMAX   =    1.529    core radius for proj-oper                                                   
   RAUG   =    1.300    factor for augmentation sphere                                              
   RDEP   =    1.514    radius for radial grids                                                     
   RDEPT  =    1.338    core radius for aug-charge                                                  
                                                                                                    
   Atomic configuration                                                                             
    4 entries                                                                                       
     n  l   j            E        occ.                                                              
     1  0  0.50      -384.7179   2.0000                                                             
     2  0  0.50       -18.5828   2.0000                                                             
     2  1  0.50        -7.0898   3.0000                                                             
     3  2  1.50        -6.8029   0.0000                                                             
   Description                                                                                      
     l       E           TYP  RCUT    TYP  RCUT                                                     
     0    -18.5828119     23  1.200                                                                 
     0    -13.5018863     23  1.200                                                                 
     1     -7.0897853     23  1.500                                                                 
     1      9.5240782     23  1.500                                                                 
     2     -6.8029130      7  1.500                                                                 
  local pseudopotential read in
  partial core-charges read in
  partial kinetic energy density read in
  atomic valenz-charges read in
  non local Contribution for L=           0  read in
    real space projection operators read in
  non local Contribution for L=           0  read in
    real space projection operators read in
  non local Contribution for L=           1  read in
    real space projection operators read in
  non local Contribution for L=           1  read in
    real space projection operators read in
    PAW grid and wavefunctions read in
 
   number of l-projection  operators is LMAX  =           4
   number of lm-projection operators is LMMAX =           8
 
 Optimization of the real space projectors (new method)

 maximal supplied QI-value         = 15.12
 optimisation between [QCUT,QGAM] = [ 11.34, 22.83] = [ 36.00,145.93] Ry 
 Optimized for a Real-space Cutoff    1.43 Angstroem

   l    n(q)    QCUT    max X(q) W(low)/X(q) W(high)/X(q)  e(spline) 
   2      9    11.338    53.897    0.16E-03    0.20E-03    0.28E-06
   2      9    11.338    52.416    0.16E-03    0.20E-03    0.29E-06
   0     10    11.338   122.045    0.31E-04    0.76E-04    0.15E-06
   0     10    11.338    73.629    0.30E-04    0.72E-04    0.15E-06
   1      9    11.338    15.255    0.20E-03    0.19E-04    0.17E-06
   1      9    11.338     9.562    0.16E-03    0.15E-04    0.14E-06
 Optimization of the real space projectors (new method)

 maximal supplied QI-value         = 14.36
 optimisation between [QCUT,QGAM] = [ 11.35, 22.84] = [ 36.05,146.02] Ry 
 Optimized for a Real-space Cutoff    1.47 Angstroem

   l    n(q)    QCUT    max X(q) W(low)/X(q) W(high)/X(q)  e(spline) 
   2      9    11.346    66.195    0.31E-03    0.12E-04    0.29E-06
   2      9    11.346    64.643    0.32E-03    0.12E-04    0.29E-06
   0     10    11.346    95.520    0.90E-04    0.16E-04    0.19E-06
   0     10    11.346    63.403    0.87E-04    0.15E-04    0.19E-06
   1     10    11.346    19.961    0.17E-03    0.21E-03    0.11E-06
   1     10    11.346    13.289    0.14E-03    0.18E-03    0.89E-07
 Optimization of the real space projectors (new method)

 maximal supplied QI-value         = 25.13
 optimisation between [QCUT,QGAM] = [ 11.31, 22.87] = [ 35.82,146.48] Ry 
 Optimized for a Real-space Cutoff    1.27 Angstroem

   l    n(q)    QCUT    max X(q) W(low)/X(q) W(high)/X(q)  e(spline) 
   0      9    11.310    79.467    0.75E-04    0.16E-03    0.36E-06
   0      9    11.310    66.151    0.74E-04    0.16E-03    0.36E-06
   1      8    11.310    17.416    0.35E-03    0.12E-03    0.95E-06
   1      8    11.310    12.382    0.37E-03    0.13E-03    0.98E-06
  PAW_PBE Ag 02Apr2005                  :
 energy of atom  1       EATOM=-1037.2675
 kinetic energy error for atom=    0.0052 (will be added to EATOM!!)
  PAW_PBE Pt 04Feb2005                  :
 energy of atom  2       EATOM= -729.1176
 kinetic energy error for atom=    0.0039 (will be added to EATOM!!)
  PAW_PBE N 08Apr2002                   :
 energy of atom  3       EATOM= -264.5486
 kinetic energy error for atom=    0.0138 (will be added to EATOM!!)
 
 
 POSCAR: Ag-Pt-N2
  positions in direct lattice
  velocities in cartesian coordinates
 exchange correlation table for  LEXCH =        8
   RHO(1)=    0.500       N(1)  =     2000
   RHO(2)=  100.500       N(2)  =     4000

 VTST: version 3.2, (02/03/18)

 CHAIN: initializing optimizer
 
 OPT: Using VASP Conjugate-Gradient optimizer
 CHAIN: Read ICHAIN            0
 
 POSCAR: Ag-Pt-N2
  positions in direct lattice
  velocities in cartesian coordinates
 


--------------------------------------------------------------------------------------------------------


 ion  position               nearest neighbor table
   1  0.000  0.000  0.218-   2 2.93   8 2.93   7 2.93   6 2.93   4 2.93  12 2.93  16 2.93  10 2.93
                             3 2.93
   2  0.333  0.000  0.218-   1 2.93   8 2.93   9 2.93   3 2.93   4 2.93   5 2.93  10 2.93  17 2.93
                            11 2.93
   3  0.667  0.000  0.218-   9 2.93   2 2.93   5 2.93  11 2.93   7 2.93  18 2.93   1 2.93   6 2.93
                            12 2.93
   4  0.000  0.333  0.218-   5 2.93   6 2.93   2 2.93   1 2.93   7 2.93  13 2.93  15 2.93   9 2.93
                            10 2.93
   5  0.333  0.333  0.218-   4 2.93   3 2.93   7 2.93   2 2.93   8 2.93  14 2.93  13 2.93  11 2.93
                             6 2.93
   6  0.667  0.333  0.218-   4 2.93   9 2.93   1 2.93  15 2.93   8 2.93  12 2.93   3 2.93   5 2.93
                            14 2.93
   7  0.000  0.667  0.218-   8 2.93   1 2.93   5 2.93   3 2.93   4 2.93  16 2.93  18 2.93  13 2.93
                             9 2.93
   8  0.333  0.667  0.218-   7 2.93   1 2.93   2 2.93   9 2.93   5 2.93  16 2.93   6 2.93  17 2.93
                            14 2.93
   9  0.667  0.667  0.218-   3 2.93   2 2.93   8 2.93   6 2.93  17 2.93   4 2.93  15 2.93   7 2.93
                            18 2.93
  10  0.111  0.111  0.317-  20 2.89  19 2.93  26 2.93  12 2.93  16 2.93  15 2.93  17 2.93  13 2.93
                            11 2.93   2 2.93   1 2.93   4 2.93
  11  0.444  0.111  0.317-  21 2.90  20 2.90  27 2.91  14 2.93  17 2.93  18 2.93   3 2.93  12 2.93
                            13 2.93  10 2.93   5 2.93   2 2.93
  12  0.778  0.111  0.317-  21 2.89  25 2.93  19 2.93  10 2.93  16 2.93  18 2.93  15 2.93  11 2.93
                             1 2.93  14 2.93   6 2.93   3 2.93
  13  0.111  0.444  0.317-  20 2.90  23 2.90  22 2.91  15 2.93  14 2.93  18 2.93  10 2.93  11 2.93
                            16 2.93   4 2.93   5 2.93   7 2.93
  14  0.444  0.444  0.317-  23 2.90  21 2.90  24 2.91  13 2.93  11 2.93  16 2.93   5 2.93  12 2.93
                            17 2.93   8 2.93  15 2.93   6 2.93
  15  0.778  0.444  0.317-  24 2.91  22 2.91  19 2.92  13 2.93  10 2.93  12 2.93  17 2.93  18 2.93
                             4 2.93   6 2.93   9 2.93  14 2.93
  16  0.111  0.778  0.317-  23 2.89  26 2.93  25 2.93  18 2.93  12 2.93  10 2.93  14 2.93  17 2.93
                            13 2.93   7 2.93   8 2.93   1 2.93
  17  0.444  0.778  0.317-  27 2.91  24 2.91  26 2.92  11 2.93  10 2.93   9 2.93  18 2.93  15 2.93
                            16 2.93   2 2.93  14 2.93   8 2.93
  18  0.778  0.778  0.317-  22 2.91  27 2.91  25 2.92  16 2.93  12 2.93  13 2.93  11 2.93  17 2.93
                            15 2.93   7 2.93   3 2.93   9 2.93
  19  0.888  0.223  0.415-  28 2.91  15 2.92  20 2.92  21 2.92  24 2.92  22 2.92  10 2.93  12 2.93
                            32 2.93  31 2.93  26 2.94  25 2.94
  20  0.221  0.221  0.414-  36 2.81  10 2.89  13 2.90  11 2.90  19 2.92  26 2.92  31 2.92  29 2.92
                            27 2.93  22 2.93  21 2.95  23 2.95
  21  0.557  0.221  0.414-  36 2.81  12 2.89  11 2.90  14 2.90  25 2.92  19 2.92  30 2.92  32 2.92
                            27 2.93  24 2.93  20 2.95  23 2.95
  22  0.889  0.556  0.415-  35 2.91  18 2.91  15 2.91  13 2.91  25 2.92  19 2.92  24 2.93  27 2.93
                            33 2.93  31 2.93  23 2.93  20 2.93
  23  0.221  0.557  0.414-  36 2.81  16 2.89  14 2.90  13 2.90  26 2.92  25 2.92  34 2.92  33 2.92
                            22 2.93  24 2.93  21 2.95  20 2.95
  24  0.556  0.556  0.415-  35 2.91  15 2.91  17 2.91  14 2.91  19 2.92  26 2.92  27 2.93  22 2.93
                            32 2.93  34 2.93  23 2.93  21 2.93
  25  0.888  0.888  0.415-  28 2.91  18 2.92  23 2.92  21 2.92  22 2.92  27 2.92  16 2.93  12 2.93
                            33 2.93  30 2.93  26 2.94  19 2.94
  26  0.223  0.888  0.415-  28 2.91  17 2.92  23 2.92  20 2.92  27 2.92  24 2.92  16 2.93  10 2.93
                            34 2.93  29 2.93  25 2.94  19 2.94
  27  0.556  0.889  0.415-  35 2.91  17 2.91  18 2.91  11 2.91  26 2.92  25 2.92  24 2.93  22 2.93
                            29 2.93  30 2.93  20 2.93  21 2.93
  28  0.000  0.000  0.513-  26 2.91  25 2.91  19 2.91  29 2.95  34 2.95  33 2.95  32 2.95  31 2.95
                            30 2.95
  29  0.333  0.004  0.513-  30 2.89  31 2.89  36 2.90  20 2.92  27 2.93  26 2.93  35 2.95  28 2.95
                            34 3.00
  30  0.662  0.004  0.513-  29 2.89  32 2.89  36 2.90  21 2.92  27 2.93  25 2.93  35 2.95  28 2.95
                            33 3.00
  31  0.004  0.333  0.513-  33 2.89  29 2.89  36 2.90  20 2.92  22 2.93  19 2.93  35 2.95  28 2.95
                            32 3.00
  32  0.662  0.333  0.513-  34 2.89  30 2.89  36 2.90  21 2.92  24 2.93  19 2.93  35 2.95  28 2.95
                            31 3.00
  33  0.004  0.662  0.513-  31 2.89  34 2.89  36 2.90  23 2.92  22 2.93  25 2.93  35 2.95  28 2.95
                            30 3.00
  34  0.333  0.662  0.513-  32 2.89  33 2.89  36 2.90  23 2.92  24 2.93  26 2.93  35 2.95  28 2.95
                            29 3.00
  35  0.667  0.667  0.512-  24 2.91  27 2.91  22 2.91  30 2.95  32 2.95  29 2.95  34 2.95  31 2.95
                            33 2.95
  36  0.333  0.333  0.506-  21 2.81  20 2.81  23 2.81  31 2.90  33 2.90  30 2.90  29 2.90  34 2.90
                            32 2.90
  37  0.271  0.331  0.681-  38 1.11
  38  0.398  0.331  0.681-  37 1.11
 
  LATTYP: Found a hexagonal cell.
 ALAT       =     8.7913665772
 C/A-ratio  =     2.7558620758
  
  Lattice vectors:
  
 A1 = (  -4.3956832886,  -7.6135467898,   0.0000000000)
 A2 = (   8.7913665771,   0.0000000000,   0.0000000000)
 A3 = (   0.0000000000,   0.0000000000,  24.2277937442)


Analysis of symmetry for initial positions (statically):
=====================================================================
 Subroutine PRICEL returns:
 Original cell was already a primitive cell.
 

 Routine SETGRP: Setting up the symmetry group for a 
 hexagonal supercell.


 Subroutine GETGRP returns: Found  2 space group operations
 (whereof  2 operations were pure point group operations)
 out of a pool of 24 trial point group operations.


The static configuration has the point symmetry C_1h.


Analysis of symmetry for dynamics (positions and initial velocities):
=====================================================================
 Subroutine PRICEL returns:
 Original cell was already a primitive cell.
 

 Routine SETGRP: Setting up the symmetry group for a 
 hexagonal supercell.


 Subroutine GETGRP returns: Found  2 space group operations
 (whereof  2 operations were pure point group operations)
 out of a pool of 24 trial point group operations.


The dynamic configuration has the point symmetry C_1h.


Analysis of constrained symmetry for selective dynamics:
=====================================================================
 Subroutine PRICEL returns:
 Original cell was already a primitive cell.
 

 Routine SETGRP: Setting up the symmetry group for a 
 hexagonal supercell.


 Subroutine GETGRP returns: Found  2 space group operations
 (whereof  2 operations were pure point group operations)
 out of a pool of 24 trial point group operations.


The constrained configuration has the point symmetry C_1h.


 Subroutine INISYM returns: Found  2 space group operations
 (whereof  2 operations are pure point group operations),
 and found     1 'primitive' translations


----------------------------------------------------------------------------------------

                                     Primitive cell                                     

  volume of cell :    1621.6506

  direct lattice vectors                    reciprocal lattice vectors
     8.791366577  0.000000000  0.000000000     0.113747958 -0.065672414  0.000000000
     4.395683289  7.613546790  0.000000000     0.000000000  0.131344829  0.000000000
     0.000000000  0.000000000 24.227793744     0.000000000  0.000000000  0.041274910

  length of vectors
     8.791366577  8.791366577 24.227793744     0.131344829  0.131344829  0.041274910

  position of ions in fractional coordinates (direct lattice)
     0.000000000  0.000000000  0.218021839
     0.333333313  0.000000000  0.218021839
     0.666666627  0.000000000  0.218021839
     1.000000000  0.333333343  0.218021839
     0.333333313  0.333333343  0.218021839
     0.666666687  0.333333343  0.218021839
     1.000000000  0.666666687  0.218021839
     0.333333313  0.666666687  0.218021839
     0.666666627  0.666666687  0.218021839
     0.111111104  0.111111112  0.316780613
     0.444444448  0.111111112  0.316780613
     0.777777791  0.111111112  0.316780613
     0.111111097  0.444444448  0.316780613
     0.444444418  0.444444448  0.316780613
     0.777777791  0.444444448  0.316780613
     0.111111104  0.777777791  0.316780613
     0.444444448  0.777777791  0.316780613
     0.777777791  0.777777791  0.316780613
     0.888351115  0.223297786  0.415267345
     0.221460933  0.221460948  0.413884769
     0.557078073  0.221460948  0.413884769
     0.888564182  0.555717939  0.414614792
     0.221460948  0.557078133  0.413884769
     0.555717939  0.555717939  0.414614792
     0.888351115  0.888351115  0.415267345
     0.223297756  0.888351115  0.415267345
     0.555717879  0.888564182  0.414614792
     0.000000000  0.000000000  0.512730379
     0.333362240  0.004221406  0.513237551
     0.662416294  0.004221406  0.513237551
     0.004221406  0.333362270  0.513237551
     0.662416354  0.333362270  0.513237551
     0.004221406  0.662416354  0.513237551
     0.333362240  0.662416354  0.513237551
     0.666666627  0.666666687  0.512324445
     0.333333313  0.333333343  0.505888282
     0.270925962  0.331467146  0.680655599
     0.397606861  0.331467146  0.680655599

  ion indices of the primitive-cell ions
   primitive index   ion index
                 1           1
                 2           2
                 3           3
                 4           4
                 5           5
                 6           6
                 7           7
                 8           8
                 9           9
                10          10
                11          11
                12          12
                13          13
                14          14
                15          15
                16          16
                17          17
                18          18
                19          19
                20          20
                21          21
                22          22
                23          23
                24          24
                25          25
                26          26
                27          27
                28          28
                29          29
                30          30
                31          31
                32          32
                33          33
                34          34
                35          35
                36          36
                37          37
                38          38

----------------------------------------------------------------------------------------

 
 
 KPOINTS: Automatic mesh                          

Automatic generation of k-mesh.
 Grid dimensions read from file:
 generate k-points for:    8    8    1

 Generating k-lattice:

  Cartesian coordinates                     Fractional coordinates (reciprocal lattice)
     0.014218495 -0.008209052  0.000000000     0.125000000 -0.000000000  0.000000000
     0.000000000  0.016418104  0.000000000     0.000000000  0.125000000  0.000000000
     0.000000000  0.000000000  0.041274910     0.000000000  0.000000000  1.000000000

  Length of vectors
     0.016418104  0.016418104  0.041274910

  Shift w.r.t. Gamma in fractional coordinates (k-lattice)
     0.000000000  0.000000000  0.000000000

 TETIRR: Found    100 inequivalent tetrahedra from      384
 
 Subroutine IBZKPT returns following result:
 ===========================================
 
 Found     21 irreducible k-points:
 
 Following reciprocal coordinates:
            Coordinates               Weight
  0.000000  0.000000  0.000000      1.000000
  0.125000 -0.000000  0.000000      4.000000
  0.000000  0.125000  0.000000      2.000000
  0.250000 -0.000000  0.000000      4.000000
  0.000000  0.250000  0.000000      2.000000
  0.375000 -0.000000  0.000000      4.000000
  0.000000  0.375000  0.000000      2.000000
  0.500000 -0.000000  0.000000      2.000000
  0.000000  0.500000  0.000000      1.000000
  0.250000  0.125000  0.000000      2.000000
  0.125000  0.250000  0.000000      4.000000
  0.375000  0.125000  0.000000      4.000000
  0.250000  0.375000  0.000000      4.000000
 -0.125000  0.250000  0.000000      4.000000
  0.500000  0.125000  0.000000      4.000000
  0.375000  0.500000  0.000000      4.000000
 -0.125000  0.375000  0.000000      4.000000
  0.500000  0.250000  0.000000      2.000000
  0.250000  0.500000  0.000000      4.000000
 -0.375000  0.250000  0.000000      4.000000
 -0.250000  0.375000  0.000000      2.000000
 
 Following cartesian coordinates:
            Coordinates               Weight
  0.000000  0.000000  0.000000      1.000000
  0.014218 -0.008209  0.000000      4.000000
  0.000000  0.016418  0.000000      2.000000
  0.028437 -0.016418  0.000000      4.000000
  0.000000  0.032836  0.000000      2.000000
  0.042655 -0.024627  0.000000      4.000000
  0.000000  0.049254  0.000000      2.000000
  0.056874 -0.032836  0.000000      2.000000
  0.000000  0.065672  0.000000      1.000000
  0.028437 -0.000000  0.000000      2.000000
  0.014218  0.024627  0.000000      4.000000
  0.042655 -0.008209  0.000000      4.000000
  0.028437  0.032836  0.000000      4.000000
 -0.014218  0.041045  0.000000      4.000000
  0.056874 -0.016418  0.000000      4.000000
  0.042655  0.041045  0.000000      4.000000
 -0.014218  0.057463  0.000000      4.000000
  0.056874 -0.000000  0.000000      2.000000
  0.028437  0.049254  0.000000      4.000000
 -0.042655  0.057463  0.000000      4.000000
 -0.028437  0.065672  0.000000      2.000000
 


--------------------------------------------------------------------------------------------------------




 Dimension of arrays:
   k-points           NKPTS =     21   k-points in BZ     NKDIM =     21   number of bands    NBANDS=    256
   number of dos      NEDOS =    301   number of ions     NIONS =     38
   non local maximal  LDIM  =      6   non local SUM 2l+1 LMDIM =     18
   total plane-waves  NPLWV = 322560
   max r-space proj   IRMAX =   2720   max aug-charges    IRDMAX=  12245
   dimension x,y,z NGX =    48 NGY =   48 NGZ =  140
   dimension x,y,z NGXF=    96 NGYF=   96 NGZF=  280
   support grid    NGXF=    96 NGYF=   96 NGZF=  280
   ions per type =              35   1   2
   NGX,Y,Z   is equivalent  to a cutoff of   9.08,  9.08,  9.61 a.u.
   NGXF,Y,Z  is equivalent  to a cutoff of  18.15, 18.15, 19.21 a.u.

 SYSTEM =  unknown system                          
 POSCAR =  Ag-Pt-N2                                

 Startparameter for this run:
   NWRITE =      2    write-flag & timer
   PREC   = normal    normal or accurate (medium, high low for compatibility)
   ISTART =      0    job   : 0-new  1-cont  2-samecut
   ICHARG =     11    charge: 1-file 2-atom 10-const
   ISPIN  =      1    spin polarized calculation?
   LNONCOLLINEAR =      F non collinear calculations
   LSORBIT =      F    spin-orbit coupling
   INIWAV =      1    electr: 0-lowe 1-rand  2-diag
   LASPH  =      F    aspherical Exc in radial PAW
   METAGGA=      F    non-selfconsistent MetaGGA calc.

 Electronic Relaxation 1
   ENCUT  =  500.0 eV  36.75 Ry    6.06 a.u.  16.03 16.03 44.17*2*pi/ulx,y,z
   ENINI  =  500.0     initial cutoff
   ENAUG  =  627.1 eV  augmentation charge cutoff
   NELM   =    150;   NELMIN=  2; NELMDL= -5     # of ELM steps 
   EDIFF  = 0.1E-04   stopping-criterion for ELM
   LREAL  =      T    real-space projection
   NLSPLINE    = F    spline interpolate recip. space projectors
   LCOMPAT=      F    compatible to vasp.4.4
   GGA_COMPAT  = T    GGA compatible to vasp.4.4-vasp.4.6
   LMAXPAW     = -100 max onsite density
   LMAXMIX     =    2 max onsite mixed and CHGCAR
   VOSKOWN=      0    Vosko Wilk Nusair interpolation
   ROPT   =   -0.00050  -0.00050  -0.00050
 Ionic relaxation
   EDIFFG = -.1E-01   stopping-criterion for IOM
   NSW    =      0    number of steps for IOM
   NBLOCK =      1;   KBLOCK =      1    inner block; outer block 
   IBRION =     -1    ionic relax: 0-MD 1-quasi-New 2-CG
   NFREE  =      1    steps in history (QN), initial steepest desc. (CG)
   ISIF   =      2    stress and relaxation
   IWAVPR =     10    prediction:  0-non 1-charg 2-wave 3-comb
   ISYM   =      2    0-nonsym 1-usesym 2-fastsym
   LCORR  =      T    Harris-Foulkes like correction to forces

   POTIM  = 0.5000    time-step for ionic-motion
   TEIN   =    0.0    initial temperature
   TEBEG  =    0.0;   TEEND  =   0.0 temperature during run
   SMASS  =  -3.00    Nose mass-parameter (am)
   estimated Nose-frequenzy (Omega)   =  0.10E-29 period in steps = 0.13E+47 mass=  -0.177E-26a.u.
   SCALEE = 1.0000    scale energy and forces
   NPACO  =    256;   APACO  = 16.0  distance and # of slots for P.C.
   PSTRESS=    0.0 pullay stress

  Mass of Ions in am
   POMASS = 107.87195.08 14.00
  Ionic Valenz
   ZVAL   =  11.00 10.00  5.00
  Atomic Wigner-Seitz radii
   RWIGS  =  -1.00 -1.00 -1.00
  virtual crystal weights 
   VCA    =   1.00  1.00  1.00
   NELECT =     405.0000    total number of electrons
   NUPDOWN=      -1.0000    fix difference up-down

 DOS related values:
   EMIN   =  10.00;   EMAX   =-10.00  energy-range for DOS
   EFERMI =   0.00
   ISMEAR =    -5;   SIGMA  =   0.10  broadening in eV -4-tet -1-fermi 0-gaus

 Electronic relaxation 2 (details)
   IALGO  =     68    algorithm
   LDIAG  =      T    sub-space diagonalisation (order eigenvalues)
   LSUBROT=      F    optimize rotation matrix (better conditioning)
   TURBO    =      0    0=normal 1=particle mesh
   IRESTART =      0    0=no restart 2=restart with 2 vectors
   NREBOOT  =      0    no. of reboots
   NMIN     =      0    reboot dimension
   EREF     =   0.00    reference energy to select bands
   IMIX   =      4    mixing-type and parameters
     AMIX     =   0.40;   BMIX     =  1.00
     AMIX_MAG =   1.60;   BMIX_MAG =  1.00
     AMIN     =   0.10
     WC   =   100.;   INIMIX=   1;  MIXPRE=   1;  MAXMIX= -45

 Intra band minimization:
   WEIMIN = 0.0000     energy-eigenvalue tresh-hold
   EBREAK =  0.98E-08  absolut break condition
   DEPER  =   0.30     relativ break condition  

   TIME   =   0.40     timestep for ELM

  volume/ion in A,a.u.               =      42.68       287.99
  Fermi-wavevector in a.u.,A,eV,Ry     =   1.030957  1.948227 14.461269  1.062873
  Thomas-Fermi vector in A             =   2.165082
 
 Write flags
   LWAVE        =      F    write WAVECAR
   LDOWNSAMPLE  =      F    k-point downsampling of WAVECAR
   LCHARG       =      F    write CHGCAR
   LVTOT        =      F    write LOCPOT, total local potential
   LVHAR        =      F    write LOCPOT, Hartree potential only
   LELF         =      F    write electronic localiz. function (ELF)
   LORBIT       =     10    0 simple, 1 ext, 2 COOP (PROOUT), +10 PAW based schemes


 Dipole corrections
   LMONO  =      F    monopole corrections only (constant potential shift)
   LDIPOL =      F    correct potential (dipole corrections)
   IDIPOL =      0    1-x, 2-y, 3-z, 4-all directions 
   EPSILON=  1.0000000 bulk dielectric constant

 Exchange correlation treatment:
   GGA     =    --    GGA type
   LEXCH   =     8    internal setting for exchange type
   VOSKOWN=      0    Vosko Wilk Nusair interpolation
   LHFCALC =     F    Hartree Fock is set to
   LHFONE  =     F    Hartree Fock one center treatment
   AEXX    =    0.0000 exact exchange contribution

 Linear response parameters
   LEPSILON=     F    determine dielectric tensor
   LRPA    =     F    only Hartree local field effects (RPA)
   LNABLA  =     F    use nabla operator in PAW spheres
   LVEL    =     F    velocity operator in full k-point grid
   LINTERFAST=   F  fast interpolation
   KINTER  =     0    interpolate to denser k-point grid
   CSHIFT  =0.1000    complex shift for real part using Kramers Kronig
   OMEGAMAX=  -1.0    maximum frequency
   DEG_THRESHOLD= 0.2000000E-02 threshold for treating states as degnerate
   RTIME   =   -0.100 relaxation time in fs
  (WPLASMAI=    0.000 imaginary part of plasma frequency in eV, 0.658/RTIME)
   DFIELD  = 0.0000000 0.0000000 0.0000000 field for delta impulse in time
 
 Orbital magnetization related:
   ORBITALMAG=     F  switch on orbital magnetization
   LCHIMAG   =     F  perturbation theory with respect to B field
   DQ        =  0.001000  dq finite difference perturbation B field
   LLRAUG    =     F  two centre corrections for induced B field



--------------------------------------------------------------------------------------------------------


 Static calculation
 charge density and potential remain constant during run
 non-spin polarized calculation
 RMM-DIIS sequential band-by-band and
  variant of blocked Davidson during initial phase
 perform sub-space diagonalisation
    before iterative eigenvector-optimisation
 no mixing
 using additional bands           53
 real space projection scheme for non local part
 use partial core corrections
 calculate Harris-corrections to forces 
   (improved forces if not selfconsistent)
 use gradient corrections 
 WARNING: stress and forces are not correct
  (second derivative of E(xc) not defined)
 use of overlap-Matrix (Vanderbilt PP)
 Fermi weights with tetrahedron method with Bloechl corrections


--------------------------------------------------------------------------------------------------------


  energy-cutoff  :      500.00
  volume of cell :     1621.65
      direct lattice vectors                 reciprocal lattice vectors
     8.791366577  0.000000000  0.000000000     0.113747958 -0.065672414  0.000000000
     4.395683289  7.613546790  0.000000000     0.000000000  0.131344829  0.000000000
     0.000000000  0.000000000 24.227793744     0.000000000  0.000000000  0.041274910

  length of vectors
     8.791366577  8.791366577 24.227793744     0.131344829  0.131344829  0.041274910


 
 k-points in units of 2pi/SCALE and weight: Automatic mesh                          
   0.00000000  0.00000000  0.00000000       0.016
   0.01421849 -0.00820905  0.00000000       0.062
   0.00000000  0.01641810  0.00000000       0.031
   0.02843699 -0.01641810  0.00000000       0.062
   0.00000000  0.03283621  0.00000000       0.031
   0.04265548 -0.02462716  0.00000000       0.062
   0.00000000  0.04925431  0.00000000       0.031
   0.05687398 -0.03283621  0.00000000       0.031
   0.00000000  0.06567241  0.00000000       0.016
   0.02843699 -0.00000000  0.00000000       0.031
   0.01421849  0.02462716  0.00000000       0.062
   0.04265548 -0.00820905  0.00000000       0.062
   0.02843699  0.03283621  0.00000000       0.062
  -0.01421849  0.04104526  0.00000000       0.062
   0.05687398 -0.01641810  0.00000000       0.062
   0.04265548  0.04104526  0.00000000       0.062
  -0.01421849  0.05746336  0.00000000       0.062
   0.05687398 -0.00000000  0.00000000       0.031
   0.02843699  0.04925431  0.00000000       0.062
  -0.04265548  0.05746336  0.00000000       0.062
  -0.02843699  0.06567241  0.00000000       0.031
 
 k-points in reciprocal lattice and weights: Automatic mesh                          
   0.00000000  0.00000000  0.00000000       0.016
   0.12500000 -0.00000000  0.00000000       0.062
   0.00000000  0.12500000  0.00000000       0.031
   0.25000000 -0.00000000  0.00000000       0.062
   0.00000000  0.25000000  0.00000000       0.031
   0.37500000 -0.00000000  0.00000000       0.062
   0.00000000  0.37500000  0.00000000       0.031
   0.50000000 -0.00000000  0.00000000       0.031
   0.00000000  0.50000000  0.00000000       0.016
   0.25000000  0.12500000  0.00000000       0.031
   0.12500000  0.25000000  0.00000000       0.062
   0.37500000  0.12500000  0.00000000       0.062
   0.25000000  0.37500000  0.00000000       0.062
  -0.12500000  0.25000000  0.00000000       0.062
   0.50000000  0.12500000  0.00000000       0.062
   0.37500000  0.50000000  0.00000000       0.062
  -0.12500000  0.37500000  0.00000000       0.062
   0.50000000  0.25000000  0.00000000       0.031
   0.25000000  0.50000000  0.00000000       0.062
  -0.37500000  0.25000000  0.00000000       0.062
  -0.25000000  0.37500000  0.00000000       0.031
 
 position of ions in fractional coordinates (direct lattice) 
   0.00000000  0.00000000  0.21802184
   0.33333331  0.00000000  0.21802184
   0.66666663  0.00000000  0.21802184
   0.00000000  0.33333334  0.21802184
   0.33333331  0.33333334  0.21802184
   0.66666669  0.33333334  0.21802184
   0.00000000  0.66666669  0.21802184
   0.33333331  0.66666669  0.21802184
   0.66666663  0.66666669  0.21802184
   0.11111110  0.11111111  0.31678061
   0.44444445  0.11111111  0.31678061
   0.77777779  0.11111111  0.31678061
   0.11111110  0.44444445  0.31678061
   0.44444442  0.44444445  0.31678061
   0.77777779  0.44444445  0.31678061
   0.11111110  0.77777779  0.31678061
   0.44444445  0.77777779  0.31678061
   0.77777779  0.77777779  0.31678061
   0.88835112  0.22329779  0.41526735
   0.22146093  0.22146095  0.41388477
   0.55707807  0.22146095  0.41388477
   0.88856418  0.55571794  0.41461479
   0.22146095  0.55707813  0.41388477
   0.55571794  0.55571794  0.41461479
   0.88835112  0.88835112  0.41526735
   0.22329776  0.88835112  0.41526735
   0.55571788  0.88856418  0.41461479
   0.00000000  0.00000000  0.51273038
   0.33336224  0.00422141  0.51323755
   0.66241629  0.00422141  0.51323755
   0.00422141  0.33336227  0.51323755
   0.66241635  0.33336227  0.51323755
   0.00422141  0.66241635  0.51323755
   0.33336224  0.66241635  0.51323755
   0.66666663  0.66666669  0.51232445
   0.33333331  0.33333334  0.50588828
   0.27092596  0.33146715  0.68065560
   0.39760686  0.33146715  0.68065560
 
 position of ions in cartesian coordinates  (Angst):
   0.00000000  0.00000000  5.28218814
   2.93045535  0.00000000  5.28218814
   5.86091070  0.00000000  5.28218814
   1.46522781  2.53784900  5.28218814
   4.39568315  2.53784900  5.28218814
   7.32613904  2.53784900  5.28218814
   2.93045562  5.07569801  5.28218814
   5.86091096  5.07569801  5.28218814
   8.79136632  5.07569801  5.28218814
   1.46522770  0.84594965  7.67489535
   4.39568332  0.84594965  7.67489535
   7.32613893  0.84594965  7.67489535
   2.93045542  3.38379860  7.67489535
   5.86091083  3.38379860  7.67489535
   8.79136671  3.38379860  7.67489535
   4.39568328  5.92164760  7.67489535
   7.32613890  5.92164760  7.67489535
  10.25659451  5.92164760  7.67489535
   8.79136665  1.70008814 10.06101158
   2.92041644  1.68610329 10.02751482
   5.87094974  1.68610329 10.02751482
  10.25445351  4.23098453 10.04520166
   4.39568342  4.24134043 10.02751482
   7.32828017  4.23098453 10.04520166
  11.71473045  6.76350278 10.06101158
   5.86800258  6.76350278 10.06101158
   8.79136631  6.76512497 10.04520166
   0.00000000  0.00000000 12.42232586
   2.94926562  0.03213987 12.43461354
   5.84210043  0.03213987 12.43461354
   1.50246689  2.53806924 12.43461354
   7.28889995  2.53806924 12.43461354
   2.94888442  5.04333790 12.43461354
   5.84248215  5.04333790 12.43461354
   8.79136632  5.07569801 12.41249099
   4.39568315  2.53784900 12.25655696
   3.83883404  2.52364063 16.49078347
   4.95253226  2.52364063 16.49078347
 


--------------------------------------------------------------------------------------------------------


 k-point   1 :   0.0000 0.0000 0.0000  plane waves:   41087
 k-point   2 :   0.1250-0.0000 0.0000  plane waves:   41076
 k-point   3 :   0.0000 0.1250 0.0000  plane waves:   41076
 k-point   4 :   0.2500-0.0000 0.0000  plane waves:   41146
 k-point   5 :   0.0000 0.2500 0.0000  plane waves:   41146
 k-point   6 :   0.3750-0.0000 0.0000  plane waves:   41178
 k-point   7 :   0.0000 0.3750 0.0000  plane waves:   41178
 k-point   8 :   0.5000-0.0000 0.0000  plane waves:   41176
 k-point   9 :   0.0000 0.5000 0.0000  plane waves:   41176
 k-point  10 :   0.2500 0.1250 0.0000  plane waves:   41152
 k-point  11 :   0.1250 0.2500 0.0000  plane waves:   41152
 k-point  12 :   0.3750 0.1250 0.0000  plane waves:   41194
 k-point  13 :   0.2500 0.3750 0.0000  plane waves:   41194
 k-point  14 :  -0.1250 0.2500 0.0000  plane waves:   41194
 k-point  15 :   0.5000 0.1250 0.0000  plane waves:   41208
 k-point  16 :   0.3750 0.5000 0.0000  plane waves:   41208
 k-point  17 :  -0.1250 0.3750 0.0000  plane waves:   41208
 k-point  18 :   0.5000 0.2500 0.0000  plane waves:   41202
 k-point  19 :   0.2500 0.5000 0.0000  plane waves:   41202
 k-point  20 :  -0.3750 0.2500 0.0000  plane waves:   41226
 k-point  21 :  -0.2500 0.3750 0.0000  plane waves:   41226

 maximum and minimum number of plane-waves per node :     41226    41076

 maximum number of plane-waves:     41226
 maximum index in each direction: 
   IXMAX=   16   IYMAX=   16   IZMAX=   44
   IXMIN=  -16   IYMIN=  -16   IZMIN=  -44


 serial   3D FFT for wavefunctions
 parallel 3D FFT for charge:
    minimum data exchange during FFTs selected (reduces bandwidth)


 total amount of memory used by VASP MPI-rank0   301469. kBytes
=======================================================================

   base      :      30000. kBytes
   nonlr-proj:      15533. kBytes
   fftplans  :       6755. kBytes
   grid      :      23316. kBytes
   one-center:        590. kBytes
   wavefun   :     225275. kBytes
 
     INWAV:  cpu time    0.0000: real time    0.0000
 initial charge density was supplied:
 number of electron     405.0000066 magnetization 
 keeping initial charge density in first step


--------------------------------------------------------------------------------------------------------


 Maximum index for non-local projection operator         2573
 Maximum index for augmentation-charges          655 (set IRDMAX)


--------------------------------------------------------------------------------------------------------


 First call to EWALD:  gamma=   0.151
 Maximum number of real-space cells 4x 4x 2
 Maximum number of reciprocal cells 2x 2x 5

    FEWALD:  cpu time    0.0014: real time    0.0014


--------------------------------------- Iteration      1(   1)  ---------------------------------------


    POTLOK:  cpu time    0.0670: real time    0.0672
    SETDIJ:  cpu time    0.0061: real time    0.0062
     EDDAV:  cpu time   22.2382: real time   22.2442
 BZINTS: Fermi energy:    9.188702;  405.000000 electrons
         Band energy: 0.111151E+04;  BLOECHL correction:   -0.014616
       DOS:  cpu time    0.0313: real time    0.0314
    --------------------------------------------
      LOOP:  cpu time   22.3426: real time   22.3490

 eigenvalue-minimisations  : 10752
 total energy-change (2. order) : 0.2497355E+04  (-0.1842952E+05)
 number of electron     405.0000066 magnetization 
 augmentation part      405.0000066 magnetization 

 Free energy of the ion-electron system (eV)
  ---------------------------------------------------
  alpha Z        PSCENC =       710.41154007
  Ewald energy   TEWEN  =    124646.58500866
  -Hartree energ DENC   =   -162747.84646899
  -exchange      EXHF   =         0.00000000
  -V(xc)+E(xc)   XCENC  =      -347.04358837
  PAW double counting   =     40100.85710393   -38539.48614154
  entropy T*S    EENTRO =         0.00000000
  eigenvalues    EBANDS =      1111.51289720
  atomic energy  EATOM  =     37562.36419116
  Solvation  Ediel_sol  =         0.00000000
  ---------------------------------------------------
  free energy    TOTEN  =      2497.35454212 eV

  energy without entropy =     2497.35454212  energy(sigma->0) =     2497.35454212


--------------------------------------------------------------------------------------------------------




--------------------------------------- Iteration      1(   2)  ---------------------------------------


     EDDAV:  cpu time   23.5982: real time   23.6047
 BZINTS: Fermi energy:    0.939554;  405.000000 electrons
         Band energy:-0.139261E+04;  BLOECHL correction:   -0.073076
       DOS:  cpu time    0.0266: real time    0.0266
    --------------------------------------------
      LOOP:  cpu time   23.6248: real time   23.6313

 eigenvalue-minimisations  : 11616
 total energy-change (2. order) :-0.2504121E+04  (-0.2382256E+04)
 number of electron     405.0000066 magnetization 
 augmentation part      405.0000066 magnetization 

 Free energy of the ion-electron system (eV)
  ---------------------------------------------------
  alpha Z        PSCENC =       710.41154007
  Ewald energy   TEWEN  =    124646.58500866
  -Hartree energ DENC   =   -162747.84646899
  -exchange      EXHF   =         0.00000000
  -V(xc)+E(xc)   XCENC  =      -347.04358837
  PAW double counting   =     40100.85710393   -38539.48614154
  entropy T*S    EENTRO =         0.00000000
  eigenvalues    EBANDS =     -1392.60826979
  atomic energy  EATOM  =     37562.36419116
  Solvation  Ediel_sol  =         0.00000000
  ---------------------------------------------------
  free energy    TOTEN  =        -6.76662487 eV

  energy without entropy =       -6.76662487  energy(sigma->0) =       -6.76662487


--------------------------------------------------------------------------------------------------------




--------------------------------------- Iteration      1(   3)  ---------------------------------------


     EDDAV:  cpu time   24.6891: real time   24.6956
 BZINTS: Fermi energy:    0.474921;  405.000000 electrons
         Band energy:-0.149574E+04;  BLOECHL correction:   -0.088956
       DOS:  cpu time    0.0303: real time    0.0303
    --------------------------------------------
      LOOP:  cpu time   24.7194: real time   24.7259

 eigenvalue-minimisations  : 12320
 total energy-change (2. order) :-0.1031288E+03  (-0.1013264E+03)
 number of electron     405.0000066 magnetization 
 augmentation part      405.0000066 magnetization 

 Free energy of the ion-electron system (eV)
  ---------------------------------------------------
  alpha Z        PSCENC =       710.41154007
  Ewald energy   TEWEN  =    124646.58500866
  -Hartree energ DENC   =   -162747.84646899
  -exchange      EXHF   =         0.00000000
  -V(xc)+E(xc)   XCENC  =      -347.04358837
  PAW double counting   =     40100.85710393   -38539.48614154
  entropy T*S    EENTRO =         0.00000000
  eigenvalues    EBANDS =     -1495.73706502
  atomic energy  EATOM  =     37562.36419116
  Solvation  Ediel_sol  =         0.00000000
  ---------------------------------------------------
  free energy    TOTEN  =      -109.89542010 eV

  energy without entropy =     -109.89542010  energy(sigma->0) =     -109.89542010


--------------------------------------------------------------------------------------------------------




--------------------------------------- Iteration      1(   4)  ---------------------------------------


     EDDAV:  cpu time   23.9459: real time   23.9520
 BZINTS: Fermi energy:    0.465541;  405.000000 electrons
         Band energy:-0.149737E+04;  BLOECHL correction:   -0.088834
       DOS:  cpu time    0.0298: real time    0.0298
    --------------------------------------------
      LOOP:  cpu time   23.9757: real time   23.9817

 eigenvalue-minimisations  : 11840
 total energy-change (2. order) :-0.1631411E+01  (-0.1625555E+01)
 number of electron     405.0000066 magnetization 
 augmentation part      405.0000066 magnetization 

 Free energy of the ion-electron system (eV)
  ---------------------------------------------------
  alpha Z        PSCENC =       710.41154007
  Ewald energy   TEWEN  =    124646.58500866
  -Hartree energ DENC   =   -162747.84646899
  -exchange      EXHF   =         0.00000000
  -V(xc)+E(xc)   XCENC  =      -347.04358837
  PAW double counting   =     40100.85710393   -38539.48614154
  entropy T*S    EENTRO =         0.00000000
  eigenvalues    EBANDS =     -1497.36847588
  atomic energy  EATOM  =     37562.36419116
  Solvation  Ediel_sol  =         0.00000000
  ---------------------------------------------------
  free energy    TOTEN  =      -111.52683096 eV

  energy without entropy =     -111.52683096  energy(sigma->0) =     -111.52683096


--------------------------------------------------------------------------------------------------------




--------------------------------------- Iteration      1(   5)  ---------------------------------------


     EDDAV:  cpu time   25.3177: real time   25.3242
 BZINTS: Fermi energy:    0.465311;  405.000000 electrons
         Band energy:-0.149741E+04;  BLOECHL correction:   -0.088836
       DOS:  cpu time    0.0305: real time    0.0305
    --------------------------------------------
      LOOP:  cpu time   25.3482: real time   25.3547

 eigenvalue-minimisations  : 12720
 total energy-change (2. order) :-0.3982199E-01  (-0.3981888E-01)
 number of electron     405.0000066 magnetization 
 augmentation part      405.0000066 magnetization 

 Free energy of the ion-electron system (eV)
  ---------------------------------------------------
  alpha Z        PSCENC =       710.41154007
  Ewald energy   TEWEN  =    124646.58500866
  -Hartree energ DENC   =   -162747.84646899
  -exchange      EXHF   =         0.00000000
  -V(xc)+E(xc)   XCENC  =      -347.04358837
  PAW double counting   =     40100.85710393   -38539.48614154
  entropy T*S    EENTRO =         0.00000000
  eigenvalues    EBANDS =     -1497.40829787
  atomic energy  EATOM  =     37562.36419116
  Solvation  Ediel_sol  =         0.00000000
  ---------------------------------------------------
  free energy    TOTEN  =      -111.56665295 eV

  energy without entropy =     -111.56665295  energy(sigma->0) =     -111.56665295


--------------------------------------------------------------------------------------------------------




--------------------------------------- Iteration      1(   6)  ---------------------------------------


    EDDIAG:  cpu time    4.0721: real time    4.0735
  RMM-DIIS:  cpu time   11.4377: real time   11.4405
    ORTHCH:  cpu time    0.8900: real time    0.8902
 BZINTS: Fermi energy:    0.465303;  405.000000 electrons
         Band energy:-0.149741E+04;  BLOECHL correction:   -0.088836
       DOS:  cpu time    0.0305: real time    0.0305
    --------------------------------------------
      LOOP:  cpu time   16.4303: real time   16.4348

 eigenvalue-minimisations  : 11181
 total energy-change (2. order) :-0.8893186E-03  (-0.8889035E-03)
 number of electron     405.0000066 magnetization 
 augmentation part      405.0000066 magnetization 

 Free energy of the ion-electron system (eV)
  ---------------------------------------------------
  alpha Z        PSCENC =       710.41154007
  Ewald energy   TEWEN  =    124646.58500866
  -Hartree energ DENC   =   -162747.84646899
  -exchange      EXHF   =         0.00000000
  -V(xc)+E(xc)   XCENC  =      -347.04358837
  PAW double counting   =     40100.85710393   -38539.48614154
  entropy T*S    EENTRO =         0.00000000
  eigenvalues    EBANDS =     -1497.40918719
  atomic energy  EATOM  =     37562.36419116
  Solvation  Ediel_sol  =         0.00000000
  ---------------------------------------------------
  free energy    TOTEN  =      -111.56754227 eV

  energy without entropy =     -111.56754227  energy(sigma->0) =     -111.56754227


--------------------------------------------------------------------------------------------------------




--------------------------------------- Iteration      1(   7)  ---------------------------------------


    EDDIAG:  cpu time    4.0713: real time    4.0726
  RMM-DIIS:  cpu time   16.0323: real time   16.0363
    ORTHCH:  cpu time    0.8883: real time    0.8886
 BZINTS: Fermi energy:    0.465299;  405.000000 electrons
         Band energy:-0.149741E+04;  BLOECHL correction:   -0.088836
       DOS:  cpu time    0.0305: real time    0.0305
    --------------------------------------------
      LOOP:  cpu time   21.0225: real time   21.0280

 eigenvalue-minimisations  : 15823
 total energy-change (2. order) :-0.3087576E-03  (-0.3077742E-03)
 number of electron     405.0000066 magnetization 
 augmentation part      405.0000066 magnetization 

 Free energy of the ion-electron system (eV)
  ---------------------------------------------------
  alpha Z        PSCENC =       710.41154007
  Ewald energy   TEWEN  =    124646.58500866
  -Hartree energ DENC   =   -162747.84646899
  -exchange      EXHF   =         0.00000000
  -V(xc)+E(xc)   XCENC  =      -347.04358837
  PAW double counting   =     40100.85710393   -38539.48614154
  entropy T*S    EENTRO =         0.00000000
  eigenvalues    EBANDS =     -1497.40949595
  atomic energy  EATOM  =     37562.36419116
  Solvation  Ediel_sol  =         0.00000000
  ---------------------------------------------------
  free energy    TOTEN  =      -111.56785103 eV

  energy without entropy =     -111.56785103  energy(sigma->0) =     -111.56785103


--------------------------------------------------------------------------------------------------------




--------------------------------------- Iteration      1(   8)  ---------------------------------------


    EDDIAG:  cpu time    4.0713: real time    4.0724
  RMM-DIIS:  cpu time   11.0066: real time   11.0094
    ORTHCH:  cpu time    0.8881: real time    0.8883
 BZINTS: Fermi energy:    0.465299;  405.000000 electrons
         Band energy:-0.149741E+04;  BLOECHL correction:   -0.088836
       DOS:  cpu time    0.0305: real time    0.0305
    --------------------------------------------
      LOOP:  cpu time   15.9965: real time   16.0007

 eigenvalue-minimisations  : 10363
 total energy-change (2. order) :-0.1713284E-04  (-0.1713329E-04)
 number of electron     405.0000066 magnetization 
 augmentation part      405.0000066 magnetization 

 Free energy of the ion-electron system (eV)
  ---------------------------------------------------
  alpha Z        PSCENC =       710.41154007
  Ewald energy   TEWEN  =    124646.58500866
  -Hartree energ DENC   =   -162747.84646899
  -exchange      EXHF   =         0.00000000
  -V(xc)+E(xc)   XCENC  =      -347.04358837
  PAW double counting   =     40100.85710393   -38539.48614154
  entropy T*S    EENTRO =         0.00000000
  eigenvalues    EBANDS =     -1497.40951308
  atomic energy  EATOM  =     37562.36419116
  Solvation  Ediel_sol  =         0.00000000
  ---------------------------------------------------
  free energy    TOTEN  =      -111.56786816 eV

  energy without entropy =     -111.56786816  energy(sigma->0) =     -111.56786816


--------------------------------------------------------------------------------------------------------




--------------------------------------- Iteration      1(   9)  ---------------------------------------


    EDDIAG:  cpu time    4.0701: real time    4.0713
  RMM-DIIS:  cpu time    8.9669: real time    8.9691
    ORTHCH:  cpu time    0.8890: real time    0.8892
 BZINTS: Fermi energy:    0.465299;  405.000000 electrons
         Band energy:-0.149741E+04;  BLOECHL correction:   -0.088836
       DOS:  cpu time    0.0292: real time    0.0292
    --------------------------------------------
      LOOP:  cpu time   13.9552: real time   13.9589

 eigenvalue-minimisations  :  7892
 total energy-change (2. order) :-0.2517569E-05  (-0.2551131E-05)
 number of electron     405.0000066 magnetization 
 augmentation part      405.0000066 magnetization 

 Free energy of the ion-electron system (eV)
  ---------------------------------------------------
  alpha Z        PSCENC =       710.41154007
  Ewald energy   TEWEN  =    124646.58500866
  -Hartree energ DENC   =   -162747.84646899
  -exchange      EXHF   =         0.00000000
  -V(xc)+E(xc)   XCENC  =      -347.04358837
  PAW double counting   =     40100.85710393   -38539.48614154
  entropy T*S    EENTRO =         0.00000000
  eigenvalues    EBANDS =     -1497.40951560
  atomic energy  EATOM  =     37562.36419116
  Solvation  Ediel_sol  =         0.00000000
  ---------------------------------------------------
  free energy    TOTEN  =      -111.56787068 eV

  energy without entropy =     -111.56787068  energy(sigma->0) =     -111.56787068


--------------------------------------------------------------------------------------------------------




 average (electrostatic) potential at core
  the test charge radii are     1.1249  1.2059  0.7089
  (the norm of the test charge is              1.0000)
       1 -78.4032       2 -78.3913       3 -78.3913       4 -78.3914       5 -78.3904
       6 -78.3911       7 -78.3912       8 -78.3910       9 -78.4012      10 -78.6286
      11 -78.6307      12 -78.6284      13 -78.6308      14 -78.6306      15 -78.6306
      16 -78.6283      17 -78.6304      18 -78.6305      19 -78.6126      20 -78.5566
      21 -78.5564      22 -78.6279      23 -78.5565      24 -78.6277      25 -78.6124
      26 -78.6124      27 -78.6277      28 -78.3713      29 -78.3067      30 -78.3067
      31 -78.3045      32 -78.3043      33 -78.3066      34 -78.3064      35 -78.3752
      36 -72.3369      37 -71.0905      38 -71.0905
 
 
 
 E-fermi :   0.4653     XC(G=0):  -5.6239     alpha+bet : -5.2157

 Fermi energy:         0.4652993036

 k-point     1 :       0.0000    0.0000    0.0000
  band No.  band energies     occupation 
      1     -23.0989      2.00000
      2      -8.4698      2.00000
      3      -6.6518      2.00000
      4      -6.4658      2.00000
      5      -6.4618      2.00000
      6      -5.7821      2.00000
      7      -5.5022      2.00000
      8      -5.3769      2.00000
      9      -5.3539      2.00000
     10      -5.3539      2.00000
     11      -5.3470      2.00000
     12      -5.3451      2.00000
     13      -5.3451      2.00000
     14      -5.3271      2.00000
     15      -5.3095      2.00000
     16      -5.3057      2.00000
     17      -5.3056      2.00000
     18      -5.2986      2.00000
     19      -5.2986      2.00000
     20      -5.2845      2.00000
     21      -5.1465      2.00000
     22      -5.1377      2.00000
     23      -5.1376      2.00000
     24      -5.1316      2.00000
     25      -5.1316      2.00000
     26      -5.1299      2.00000
     27      -5.1009      2.00000
     28      -4.9666      2.00000
     29      -4.9419      2.00000
     30      -4.9418      2.00000
     31      -4.9338      2.00000
     32      -4.9251      2.00000
     33      -4.9134      2.00000
     34      -4.9134      2.00000
     35      -4.9068      2.00000
     36      -4.8879      2.00000
     37      -4.8879      2.00000
     38      -4.8820      2.00000
     39      -4.8820      2.00000
     40      -4.8177      2.00000
     41      -4.7722      2.00000
     42      -4.7721      2.00000
     43      -4.7675      2.00000
     44      -4.6913      2.00000
     45      -4.6913      2.00000
     46      -4.5601      2.00000
     47      -4.5600      2.00000
     48      -4.5443      2.00000
     49      -4.5443      2.00000
     50      -4.5401      2.00000
     51      -4.5310      2.00000
     52      -4.5308      2.00000
     53      -4.5222      2.00000
     54      -4.4894      2.00000
     55      -4.4894      2.00000
     56      -4.3968      2.00000
     57      -4.3966      2.00000
     58      -4.3619      2.00000
     59      -4.3606      2.00000
     60      -4.1611      2.00000
     61      -4.1575      2.00000
     62      -4.1574      2.00000
     63      -4.1531      2.00000
     64      -4.1433      2.00000
     65      -4.1433      2.00000
     66      -4.1305      2.00000
     67      -4.1286      2.00000
     68      -4.1285      2.00000
     69      -4.0905      2.00000
     70      -4.0905      2.00000
     71      -3.9923      2.00000
     72      -3.9923      2.00000
     73      -3.9777      2.00000
     74      -3.9776      2.00000
     75      -3.9756      2.00000
     76      -3.9720      2.00000
     77      -3.9582      2.00000
     78      -3.9582      2.00000
     79      -3.9254      2.00000
     80      -3.9254      2.00000
     81      -3.9222      2.00000
     82      -3.9205      2.00000
     83      -3.9204      2.00000
     84      -3.9104      2.00000
     85      -3.8980      2.00000
     86      -3.8941      2.00000
     87      -3.8941      2.00000
     88      -3.8431      2.00000
     89      -3.8430      2.00000
     90      -3.7693      2.00000
     91      -3.7691      2.00000
     92      -3.7669      2.00000
     93      -3.7471      2.00000
     94      -3.7469      2.00000
     95      -3.7004      2.00000
     96      -3.7003      2.00000
     97      -3.6977      2.00000
     98      -3.6977      2.00000
     99      -3.6824      2.00000
    100      -3.6690      2.00000
    101      -3.6690      2.00000
    102      -3.5867      2.00000
    103      -3.5864      2.00000
    104      -3.4487      2.00000
    105      -3.4487      2.00000
    106      -3.4336      2.00000
    107      -3.4333      2.00000
    108      -3.4276      2.00000
    109      -3.4238      2.00000
    110      -3.4017      2.00000
    111      -3.4017      2.00000
    112      -3.3816      2.00000
    113      -3.3609      2.00000
    114      -3.3609      2.00000
    115      -3.3095      2.00000
    116      -3.3078      2.00000
    117      -3.2818      2.00000
    118      -3.2817      2.00000
    119      -3.2648      2.00000
    120      -3.1882      2.00000
    121      -3.1882      2.00000
    122      -3.1658      2.00000
    123      -3.1658      2.00000
    124      -3.1011      2.00000
    125      -3.1011      2.00000
    126      -3.0798      2.00000
    127      -3.0772      2.00000
    128      -3.0771      2.00000
    129      -3.0630      2.00000
    130      -3.0626      2.00000
    131      -3.0455      2.00000
    132      -3.0439      2.00000
    133      -3.0400      2.00000
    134      -3.0398      2.00000
    135      -3.0393      2.00000
    136      -3.0347      2.00000
    137      -3.0346      2.00000
    138      -2.9231      2.00000
    139      -2.9230      2.00000
    140      -2.8577      2.00000
    141      -2.8439      2.00000
    142      -2.8435      2.00000
    143      -2.8393      2.00000
    144      -2.8314      2.00000
    145      -2.8307      2.00000
    146      -2.8304      2.00000
    147      -2.8280      2.00000
    148      -2.8279      2.00000
    149      -2.8216      2.00000
    150      -2.8116      2.00000
    151      -2.8114      2.00000
    152      -2.7594      2.00000
    153      -2.7459      2.00000
    154      -2.7416      2.00000
    155      -2.7415      2.00000
    156      -2.7355      2.00000
    157      -2.7347      2.00000
    158      -2.7313      2.00000
    159      -2.7311      2.00000
    160      -2.6786      2.00000
    161      -2.6746      2.00000
    162      -2.6745      2.00000
    163      -2.6464      2.00000
    164      -2.6451      2.00000
    165      -2.6450      2.00000
    166      -2.6429      2.00000
    167      -2.6429      2.00000
    168      -2.6424      2.00000
    169      -2.5930      2.00000
    170      -2.5919      2.00000
    171      -2.5918      2.00000
    172      -2.5802      2.00000
    173      -2.5802      2.00000
    174      -2.5757      2.00000
    175      -2.5655      2.00000
    176      -2.5282      2.00000
    177      -2.5282      2.00000
    178      -2.4839      2.00000
    179      -2.4837      2.00000
    180      -2.4514      2.00000
    181      -2.4513      2.00000
    182      -2.4259      2.00000
    183      -2.4210      2.00000
    184      -2.4158      2.00000
    185      -2.3537      2.00000
    186      -2.3537      2.00000
    187      -2.3451      2.00000
    188      -2.3344      2.00000
    189      -2.3344      2.00000
    190      -1.6564      2.00000
    191      -1.6419      2.00000
    192      -1.6417      2.00000
    193      -1.5777      2.00000
    194      -1.5617      2.00000
    195      -1.5614      2.00000
    196      -0.9886      2.00000
    197      -0.8971      2.00000
    198      -0.8967      2.00000
    199      -0.8215      2.00000
    200      -0.8214      2.00000
    201      -0.3408      2.00000
    202       0.1432      2.00000
    203       0.1818      2.00000
    204       0.1830      2.00000
    205       0.2196      2.41066
    206       0.2200      2.27301
    207       0.2708      0.96149
    208       0.9039      0.00000
    209       2.3741      0.00000
    210       2.4032      0.00000
    211       2.4123      0.00000
    212       2.4871      0.00000
    213       2.5215      0.00000
    214       2.5469      0.00000
    215       2.9197      0.00000
    216       2.9574      0.00000
    217       3.7394      0.00000
    218       3.7649      0.00000
    219       3.9347      0.00000
    220       3.9356      0.00000
    221       3.9733      0.00000
    222       3.9737      0.00000
    223       4.5865      0.00000
    224       4.6631      0.00000
    225       4.7360      0.00000
    226       4.7435      0.00000
    227       4.7465      0.00000
    228       4.7617      0.00000
    229       4.7721      0.00000
    230       4.8012      0.00000
    231       4.8380      0.00000
    232       4.8994      0.00000
    233       4.9135      0.00000
    234       4.9146      0.00000
    235       5.0118      0.00000
    236       5.0381      0.00000
    237       5.6969      0.00000
    238       5.9632      0.00000
    239       6.3512      0.00000
    240       6.3525      0.00000
    241       6.4684      0.00000
    242       6.4866      0.00000
    243       6.4890      0.00000
    244       6.5311      0.00000
    245       6.5985      0.00000
    246       6.6140      0.00000
    247       6.6837      0.00000
    248       6.6899      0.00000
    249       6.6997      0.00000
    250       6.8553      0.00000
    251       6.9577      0.00000
    252       6.9947      0.00000
    253       7.0074      0.00000
    254       7.0280      0.00000
    255       7.0920      0.00000
    256       7.2038      0.00000

 k-point     2 :       0.1250   -0.0000    0.0000
  band No.  band energies     occupation 
      1     -23.0989      2.00000
      2      -8.4698      2.00000
      3      -6.6059      2.00000
      4      -6.4658      2.00000
      5      -6.4615      2.00000
      6      -5.7408      2.00000
      7      -5.4730      2.00000
      8      -5.4073      2.00000
      9      -5.3805      2.00000
     10      -5.3594      2.00000
     11      -5.3484      2.00000
     12      -5.3455      2.00000
     13      -5.3276      2.00000
     14      -5.3218      2.00000
     15      -5.3153      2.00000
     16      -5.3086      2.00000
     17      -5.2820      2.00000
     18      -5.2393      2.00000
     19      -5.2328      2.00000
     20      -5.2317      2.00000
     21      -5.2127      2.00000
     22      -5.1828      2.00000
     23      -5.1814      2.00000
     24      -5.1009      2.00000
     25      -5.0789      2.00000
     26      -5.0709      2.00000
     27      -5.0289      2.00000
     28      -5.0138      2.00000
     29      -5.0087      2.00000
     30      -5.0004      2.00000
     31      -4.9534      2.00000
     32      -4.9454      2.00000
     33      -4.9051      2.00000
     34      -4.9037      2.00000
     35      -4.8816      2.00000
     36      -4.8644      2.00000
     37      -4.8524      2.00000
     38      -4.8384      2.00000
     39      -4.8026      2.00000
     40      -4.7965      2.00000
     41      -4.7743      2.00000
     42      -4.7606      2.00000
     43      -4.7201      2.00000
     44      -4.6554      2.00000
     45      -4.6516      2.00000
     46      -4.6225      2.00000
     47      -4.6223      2.00000
     48      -4.5999      2.00000
     49      -4.5718      2.00000
     50      -4.5690      2.00000
     51      -4.5558      2.00000
     52      -4.5486      2.00000
     53      -4.4938      2.00000
     54      -4.4818      2.00000
     55      -4.4534      2.00000
     56      -4.3762      2.00000
     57      -4.3743      2.00000
     58      -4.3510      2.00000
     59      -4.3449      2.00000
     60      -4.1854      2.00000
     61      -4.1793      2.00000
     62      -4.1791      2.00000
     63      -4.1574      2.00000
     64      -4.1556      2.00000
     65      -4.1484      2.00000
     66      -4.1432      2.00000
     67      -4.1277      2.00000
     68      -4.1195      2.00000
     69      -4.1114      2.00000
     70      -4.0731      2.00000
     71      -4.0310      2.00000
     72      -4.0107      2.00000
     73      -4.0060      2.00000
[...]
  0.000   0.000   0.000   0.000   0.000   0.000   0.000   0.000   0.000   0.000   0.000   0.000   0.000   0.000   0.000   0.000
  0.000   0.000   0.000   0.000   0.000   0.000   0.000   0.000   0.000   0.000   0.000   0.000   0.000   0.000   0.000   0.000
  0.000   0.000   0.000   0.000   0.000   0.000   0.000   0.000   0.000   0.000   1.000   0.000   0.000   0.000   0.000   0.000
  0.000   0.000   0.000   0.000   0.000   0.000   0.000   0.000   0.000   0.000   0.000   0.000   0.000   0.000   0.000   0.000
  0.000   0.000   0.000   0.000   0.000   0.000   0.000   0.000   0.000   0.000   0.000   0.000   0.000   0.000   0.000   0.000
  0.000   0.000   0.000   0.000   0.000   0.000   0.000   0.000   0.000   0.000   0.000   0.000   0.000   0.000   0.000   0.000
  0.000   0.000   0.000   0.000   0.000   0.000   0.000   0.000   0.000   0.000   0.000   0.000   0.000   0.000   0.000   0.000
  0.000   0.000   0.000   0.000   0.000   0.000   0.000   0.000   0.000   0.000   0.000   0.000   0.000   0.000   0.000   0.000
  0.000   0.000   0.000   0.000   0.000   0.000   0.000   0.000   0.000   0.000   0.000   0.000   0.000   0.000   0.000   0.000
  0.000   0.000   0.000   0.000   0.000   0.000   0.000   0.000   0.000   0.000   0.000   0.000   0.000   0.000   0.000   0.000


------------------------ aborting loop because EDIFF is reached ----------------------------------------





 total charge

# of ion       s       p       d       tot
------------------------------------------
    1        0.413   0.204   9.177   9.794
    2        0.418   0.202   9.177   9.797
    3        0.418   0.202   9.177   9.797
    4        0.418   0.202   9.177   9.797
    5        0.416   0.203   9.178   9.796
    6        0.418   0.202   9.177   9.797
    7        0.418   0.202   9.177   9.797
    8        0.418   0.202   9.177   9.797
    9        0.416   0.203   9.177   9.797
   10        0.405   0.271   9.164   9.840
   11        0.407   0.269   9.166   9.843
   12        0.405   0.271   9.164   9.840
   13        0.407   0.269   9.166   9.843
   14        0.407   0.269   9.166   9.843
   15        0.404   0.269   9.166   9.840
   16        0.405   0.271   9.164   9.840
   17        0.404   0.269   9.166   9.840
   18        0.404   0.269   9.166   9.840
   19        0.403   0.269   9.166   9.838
   20        0.406   0.283   9.164   9.854
   21        0.406   0.283   9.164   9.854
   22        0.402   0.271   9.168   9.841
   23        0.407   0.283   9.164   9.854
   24        0.402   0.271   9.168   9.841
   25        0.403   0.268   9.167   9.838
   26        0.403   0.268   9.167   9.838
   27        0.402   0.271   9.168   9.841
   28        0.414   0.197   9.181   9.792
   29        0.410   0.208   9.176   9.794
   30        0.410   0.208   9.176   9.794
   31        0.410   0.208   9.176   9.794
   32        0.410   0.208   9.176   9.794
   33        0.410   0.208   9.176   9.794
   34        0.410   0.208   9.176   9.794
   35        0.412   0.199   9.181   9.792
   36        0.618   0.269   8.178   9.065
   37        1.373   2.469   0.000   3.842
   38        1.373   2.469   0.000   3.842
--------------------------------------------------
tot         17.685  13.572 329.177 360.434
 
    CHARGE:  cpu time    0.9193: real time    0.9195
    FORLOC:  cpu time    0.0198: real time    0.0198
    FORNL :  cpu time    4.3422: real time    4.3435
    STRESS:  cpu time   13.0431: real time   13.0463
    FORCOR:  cpu time    0.0750: real time    0.0750
    FORHAR:  cpu time    0.0301: real time    0.0301
    OFIELD:  cpu time    0.0004: real time    0.0004

  FORCE on cell =-STRESS in cart. coord.  units (eV):
  Direction    XX          YY          ZZ          XY          YZ          ZX
  --------------------------------------------------------------------------------------
  Alpha Z   710.41154   710.41154   710.41154
  Ewald  147708.86657147387.08741************     0.00002     0.11613     0.00001
  Hartree157768.92882157654.00290************     0.00001     0.10209     0.00000
  E(xc)   -2114.84680 -2116.08806 -2121.84010    -0.00004     0.00001    -0.00000
  Local  ************************316450.71127     0.00088    -0.21875    -0.00011
  n-local  -349.87271  -337.34408  -342.34171     2.52833     0.00030     0.18653
  augment  3274.14645  3273.84204  3283.70493    -0.00026     0.00006    -0.00003
  Kinetic  5089.66410  5107.76241  5136.51001     1.09446     0.00112     0.03391
  Fock        0.00000     0.00000     0.00000     0.00000     0.00000     0.00000
  -------------------------------------------------------------------------------------
  Total      -8.53698    -8.52037    -0.60657    -0.00000     0.00096     0.00000
  in kB      -8.43446    -8.41805    -0.59928    -0.00000     0.00095     0.00000
  external pressure =       -5.82 kB  Pullay stress =        0.00 kB


 VOLUME and BASIS-vectors are now :
 -----------------------------------------------------------------------------
  energy-cutoff  :      500.00
  volume of cell :     1621.65
      direct lattice vectors                 reciprocal lattice vectors
     8.791366577  0.000000000  0.000000000     0.113747958 -0.065672414  0.000000000
     4.395683289  7.613546790  0.000000000     0.000000000  0.131344829  0.000000000
     0.000000000  0.000000000 24.227793744     0.000000000  0.000000000  0.041274910

  length of vectors
     8.791366577  8.791366577 24.227793744     0.131344829  0.131344829  0.041274910


 FORCES acting on ions
    electron-ion (+dipol)            ewald-force                    non-local-force                 convergence-correction
 -----------------------------------------------------------------------------------------------
   0.460E-04 0.160E-02 0.268E+04   -.954E-04 -.261E-02 -.267E+04   -.625E-14 -.951E-03 -.198E+01   -.107E-03 0.168E-02 -.279E+00
   0.312E+00 0.262E+00 0.268E+04   -.396E+00 -.303E+00 -.267E+04   0.462E-01 0.767E-02 -.167E+01   0.354E-01 0.309E-01 -.199E+00
   -.311E+00 0.262E+00 0.268E+04   0.396E+00 -.303E+00 -.267E+04   -.462E-01 0.767E-02 -.167E+01   -.360E-01 0.328E-01 -.199E+00
   0.376E+00 0.130E+00 0.268E+04   -.458E+00 -.192E+00 -.267E+04   0.320E-01 0.365E-01 -.167E+01   0.465E-01 0.235E-01 -.201E+00
   -.766E-05 -.109E-01 0.268E+04   0.981E-04 0.599E-03 -.267E+04   -.581E-14 -.885E-03 -.163E+01   0.624E-02 0.112E-01 -.219E+00
   -.376E+00 0.130E+00 0.268E+04   0.458E+00 -.192E+00 -.267E+04   -.320E-01 0.365E-01 -.167E+01   -.479E-01 0.244E-01 -.200E+00
   0.737E-01 -.391E+00 0.268E+04   -.624E-01 0.495E+00 -.267E+04   -.168E-01 -.447E-01 -.167E+01   0.637E-02 -.556E-01 -.196E+00
   -.737E-01 -.391E+00 0.268E+04   0.624E-01 0.495E+00 -.267E+04   0.168E-01 -.447E-01 -.167E+01   -.473E-02 -.566E-01 -.196E+00
   0.362E-04 0.829E-02 0.268E+04   0.792E-04 0.200E-02 -.267E+04   0.114E-13 0.173E-02 -.177E+01   -.667E-02 -.119E-01 -.184E+00
   0.496E+01 0.288E+01 0.929E+03   -.477E+01 -.277E+01 -.928E+03   -.141E+00 -.810E-01 -.672E+00   -.420E-01 -.192E-01 -.141E+00
   -.291E-04 0.258E+01 0.933E+03   0.410E-04 -.253E+01 -.933E+03   -.341E-12 -.520E-01 -.579E+00   0.629E-02 -.120E-02 -.119E+00
   -.496E+01 0.288E+01 0.929E+03   0.477E+01 -.277E+01 -.928E+03   0.141E+00 -.810E-01 -.672E+00   0.404E-01 -.181E-01 -.142E+00
   0.223E+01 -.130E+01 0.933E+03   -.218E+01 0.127E+01 -.933E+03   -.443E-01 0.237E-01 -.578E+00   -.528E-02 0.115E-01 -.117E+00
   -.223E+01 -.130E+01 0.933E+03   0.218E+01 0.127E+01 -.933E+03   0.443E-01 0.237E-01 -.578E+00   0.160E-01 0.107E-01 -.118E+00
   0.159E-04 0.138E+01 0.930E+03   -.108E-03 -.141E+01 -.929E+03   0.560E-13 0.853E-02 -.625E+00   -.166E-02 0.909E-02 -.153E+00
   -.786E-05 -.573E+01 0.929E+03   0.205E-04 0.551E+01 -.928E+03   0.107E-11 0.163E+00 -.670E+00   0.117E-03 0.417E-01 -.142E+00
   0.121E+01 -.690E+00 0.930E+03   -.123E+01 0.714E+00 -.929E+03   0.790E-02 -.433E-02 -.621E+00   0.569E-02 -.122E-01 -.152E+00
   -.121E+01 -.691E+00 0.930E+03   0.123E+01 0.714E+00 -.929E+03   -.790E-02 -.433E-02 -.621E+00   -.569E-02 -.103E-01 -.152E+00
   0.413E-04 0.389E+01 -.850E+03   -.130E-03 -.376E+01 0.850E+03   -.566E-12 -.862E-01 0.491E+00   -.622E-03 -.518E-01 0.260E-01
   0.694E+01 0.406E+01 -.818E+03   -.672E+01 -.394E+01 0.818E+03   -.239E+00 -.137E+00 -.242E+00   0.183E-01 0.180E-01 -.368E-01
   -.694E+01 0.406E+01 -.818E+03   0.672E+01 -.394E+01 0.818E+03   0.239E+00 -.137E+00 -.242E+00   -.183E-01 0.181E-01 -.375E-01
   0.205E+01 -.129E+01 -.839E+03   -.228E+01 0.143E+01 0.838E+03   0.202E+00 -.118E+00 0.580E+00   0.194E-01 -.137E-01 -.108E-01
   -.556E-04 -.813E+01 -.818E+03   0.432E-04 0.787E+01 0.819E+03   0.180E-11 0.274E+00 -.241E+00   0.503E-03 -.249E-01 -.374E-01
   -.205E+01 -.129E+01 -.839E+03   0.228E+01 0.143E+01 0.838E+03   -.202E+00 -.118E+00 0.580E+00   -.194E-01 -.137E-01 -.102E-01
   -.333E+01 -.185E+01 -.851E+03   0.321E+01 0.179E+01 0.850E+03   0.759E-01 0.441E-01 0.490E+00   0.507E-01 0.261E-01 0.267E-01
   0.333E+01 -.185E+01 -.851E+03   -.321E+01 0.179E+01 0.850E+03   -.759E-01 0.441E-01 0.490E+00   -.506E-01 0.252E-01 0.266E-01
   0.188E-04 0.242E+01 -.839E+03   0.110E-03 -.269E+01 0.839E+03   0.153E-11 0.233E+00 0.581E+00   -.559E-03 0.176E-01 -.100E-01
   0.544E-04 0.695E+00 -.259E+04   -.116E-03 -.695E+00 0.259E+04   0.822E-14 0.125E-02 0.201E+01   -.112E-02 -.219E-02 0.171E+00
   0.110E+02 0.201E+02 -.259E+04   -.106E+02 -.195E+02 0.259E+04   -.382E+00 -.532E+00 0.179E+01   -.288E-02 -.570E-01 0.696E-01
   -.110E+02 0.201E+02 -.259E+04   0.106E+02 -.195E+02 0.259E+04   0.382E+00 -.532E+00 0.179E+01   0.125E-01 -.555E-01 0.696E-01
   0.225E+02 -.183E+00 -.259E+04   -.218E+02 0.208E+00 0.259E+04   -.649E+00 -.635E-01 0.182E+01   -.499E-01 0.373E-01 0.708E-01
   -.225E+02 -.183E+00 -.259E+04   0.218E+02 0.208E+00 0.259E+04   0.649E+00 -.635E-01 0.182E+01   0.595E-01 0.382E-01 0.706E-01
   0.110E+02 -.199E+02 -.259E+04   -.107E+02 0.192E+02 0.259E+04   -.274E+00 0.592E+00 0.179E+01   -.465E-01 0.346E-01 0.693E-01
   -.110E+02 -.199E+02 -.259E+04   0.107E+02 0.192E+02 0.259E+04   0.274E+00 0.592E+00 0.179E+01   0.582E-01 0.340E-01 0.692E-01
   0.233E-04 -.536E+00 -.259E+04   0.106E-03 0.550E+00 0.258E+04   0.809E-15 0.123E-03 0.201E+01   -.774E-02 -.135E-01 0.122E+00
   -.126E-05 -.175E+00 -.226E+04   0.953E-04 0.169E+00 0.225E+04   0.381E-14 0.579E-03 0.185E+01   0.179E-02 0.608E-02 0.103E+00
   0.241E+03 -.188E-01 -.982E+03   -.286E+03 0.182E-01 0.982E+03   0.456E+02 -.114E-02 0.580E-01   -.147E-03 0.117E-02 0.118E-01
   -.241E+03 -.188E-01 -.982E+03   0.286E+03 0.182E-01 0.982E+03   -.456E+02 -.114E-02 0.580E-01   0.132E-03 0.118E-02 0.118E-01
 -----------------------------------------------------------------------------------------------
   0.506E-03 -.236E-01 0.397E+01   0.568E-13 0.389E-12 0.762E-11   -.924E-13 -.137E-01 -.170E+01   0.363E-01 0.373E-01 -.233E+01
 
 
 POSITION                                       TOTAL-FORCE (eV/Angst)
 -----------------------------------------------------------------------------------
      0.00000      0.00000      5.28219        -0.000000     -0.000274      0.061899
      2.93046      0.00000      5.28219        -0.002763     -0.001955      0.030864
      5.86091      0.00000      5.28219         0.002763     -0.001955      0.030864
      1.46523      2.53785      5.28219        -0.003060     -0.001727      0.030823
      4.39568      2.53785      5.28219        -0.000000     -0.000025      0.027303
      7.32614      2.53785      5.28219         0.003060     -0.001727      0.030823
      2.93046      5.07570      5.28219         0.000066      0.003690      0.030793
      5.86091      5.07570      5.28219        -0.000066      0.003690      0.030793
      8.79137      5.07570      5.28219         0.000000      0.000144      0.038633
      1.46523      0.84595      7.67490         0.008673      0.005085     -0.018028
      4.39568      0.84595      7.67490        -0.000000     -0.009426     -0.078124
      7.32614      0.84595      7.67490        -0.008673      0.005085     -0.018028
      2.93046      3.38380      7.67490        -0.008191      0.005145     -0.078073
      5.86091      3.38380      7.67490         0.008191      0.005145     -0.078073
      8.79137      3.38380      7.67490        -0.000000     -0.016051     -0.035226
      4.39568      5.92165      7.67490        -0.000000     -0.010279     -0.017836
      7.32614      5.92165      7.67490        -0.014013      0.007970     -0.034701
     10.25659      5.92165      7.67490         0.014013      0.007970     -0.034701
      8.79137      1.70009     10.06101        -0.000000     -0.008721      0.013068
      2.92042      1.68610     10.02751         0.003925      0.001955     -0.000579
      5.87095      1.68610     10.02751        -0.003925      0.001955     -0.000579
     10.25445      4.23098     10.04520        -0.014472      0.008179      0.005563
      4.39568      4.24134     10.02751        -0.000000     -0.004481     -0.000584
      7.32828      4.23098     10.04520         0.014472      0.008179      0.005563
     11.71473      6.76350     10.06101         0.007585      0.004465      0.011600
      5.86800      6.76350     10.06101        -0.007585      0.004465      0.011600
      8.79137      6.76512     10.04520        -0.000000     -0.016278      0.004753
      0.00000      0.00000     12.42233        -0.000000     -0.000891      0.004357
      2.94927      0.03214     12.43461        -0.004960     -0.007893     -0.000715
      5.84210      0.03214     12.43461         0.004960     -0.007893     -0.000715
      1.50247      2.53807     12.43461        -0.008439     -0.000719      0.001435
      7.28890      2.53807     12.43461         0.008439     -0.000719      0.001435
      2.94888      5.04334     12.43461        -0.003534      0.008980     -0.000757
      5.84248      5.04334     12.43461         0.003534      0.008980     -0.000757
      8.79137      5.07570     12.41249         0.000000      0.000899      0.007399
      4.39568      2.53785     12.25656         0.000000      0.000213      0.007872
      3.83883      2.52364     16.49078         0.007891     -0.000589      0.005017
      4.95253      2.52364     16.49078        -0.007891     -0.000589      0.005017
 -----------------------------------------------------------------------------------
    total drift:                                0.036790     -0.000021     -0.058185


--------------------------------------------------------------------------------------------------------



  FREE ENERGIE OF THE ION-ELECTRON SYSTEM (eV)
  ---------------------------------------------------
  free  energy   TOTEN  =      -111.56787068 eV

  energy  without entropy=     -111.56787068  energy(sigma->0) =     -111.56787068
 


--------------------------------------------------------------------------------------------------------


    POTLOK:  cpu time    0.0655: real time    0.0655


--------------------------------------------------------------------------------------------------------


 stress matrix after NEB project (eV)
     -8.53698     -0.00000      0.00000
     -0.00000     -8.52037      0.00096
      0.00000      0.00096     -0.60657
  FORCES: max atom, RMS     0.009370    0.002150
  FORCE total and by dimension    0.013251    0.007891
  Stress total and by dimension   12.076612    8.536979
     LOOP+:  cpu time  205.9938: real time  206.0554
 -----------------------------------------------------------------------------
|                                                                             |
|           W    W    AA    RRRRR   N    N  II  N    N   GGGG   !!!           |
|           W    W   A  A   R    R  NN   N  II  NN   N  G    G  !!!           |
|           W    W  A    A  R    R  N N  N  II  N N  N  G       !!!           |
|           W WW W  AAAAAA  RRRRR   N  N N  II  N  N N  G  GGG   !            |
|           WW  WW  A    A  R   R   N   NN  II  N   NN  G    G                |
|           W    W  A    A  R    R  N    N  II  N    N   GGGG   !!!           |
|                                                                             |
|     Tetrahedron method does not include variations of the Fermi             |
|     occupations, so forces and stress will be inaccurate. We suggest        |
|     using a different smearing scheme ISMEAR = 1 or 2 for metals in         |
|     relaxations.                                                            |
|                                                                             |
 -----------------------------------------------------------------------------

    4ORBIT:  cpu time    0.0000: real time    0.0000



 total charge

# of ion       s       p       d       tot
------------------------------------------
    1        0.413   0.204   9.177   9.794
    2        0.418   0.202   9.177   9.797
    3        0.418   0.202   9.177   9.797
    4        0.418   0.202   9.177   9.797
    5        0.416   0.203   9.178   9.796
    6        0.418   0.202   9.177   9.797
    7        0.418   0.202   9.177   9.797
    8        0.418   0.202   9.177   9.797
    9        0.416   0.203   9.177   9.797
   10        0.405   0.271   9.164   9.840
   11        0.407   0.269   9.166   9.843
   12        0.405   0.271   9.164   9.840
   13        0.407   0.269   9.166   9.843
   14        0.407   0.269   9.166   9.843
   15        0.404   0.269   9.166   9.840
   16        0.405   0.271   9.164   9.840
   17        0.404   0.269   9.166   9.840
   18        0.404   0.269   9.166   9.840
   19        0.403   0.269   9.166   9.838
   20        0.406   0.283   9.164   9.854
   21        0.406   0.283   9.164   9.854
   22        0.402   0.271   9.168   9.841
   23        0.407   0.283   9.164   9.854
   24        0.402   0.271   9.168   9.841
   25        0.403   0.268   9.167   9.838
   26        0.403   0.268   9.167   9.838
   27        0.402   0.271   9.168   9.841
   28        0.414   0.197   9.181   9.792
   29        0.410   0.208   9.176   9.794
   30        0.410   0.208   9.176   9.794
   31        0.410   0.208   9.176   9.794
   32        0.410   0.208   9.176   9.794
   33        0.410   0.208   9.176   9.794
   34        0.410   0.208   9.176   9.794
   35        0.412   0.199   9.181   9.792
   36        0.618   0.269   8.178   9.065
   37        1.373   2.469   0.000   3.842
   38        1.373   2.469   0.000   3.842
--------------------------------------------------
tot         17.685  13.572 329.177 360.434
 
 BZINTS: Fermi energy:    0.465299;  405.000000 electrons
         Band energy:-0.149741E+04;  BLOECHL correction:   -0.088836

 total amount of memory used by VASP MPI-rank0   301469. kBytes
=======================================================================

   base      :      30000. kBytes
   nonlr-proj:      15533. kBytes
   fftplans  :       6755. kBytes
   grid      :      23316. kBytes
   one-center:        590. kBytes
   wavefun   :     225275. kBytes
 
  
  
 General timing and accounting informations for this job:
 ========================================================
  
                  Total CPU time used (sec):      221.631
                            User time (sec):      214.387
                          System time (sec):        7.244
                         Elapsed time (sec):      222.062
  
                   Maximum memory used (kb):      569840.
                   Average memory used (kb):          N/A
  
                          Minor page faults:        92846
                          Major page faults:            0
                 Voluntary context switches:        22504
