 vasp.6.2.0 18Jan21 (build Jun 12 2021 23:27:24) complex                        
  
 executed on             LinuxIFC date 2022.05.27  05:18:11
 running on   28 total cores
 distrk:  each k-point on   28 cores,    1 groups
 distr:  one band on NCORE=   1 cores,   28 groups


--------------------------------------------------------------------------------------------------------


 INCAR:
   ISMEAR = -5
   SIGMA = 0.1
   ISPIN = 1
   EDIFF = 1.d-5
   EDIFFG = -0.01
   NSW = 0
   NELM = 150
   ENCUT = 500
   ISIF = 2
   IBRION = 2
   LREAL = Auto
   ALGO = Fast
   ICHARG = 11
   LORBIT = 10
   LCHARG = .F.
   LWAVE = .F.

 POTCAR:    PAW_PBE Au 04Oct2007                  
 POTCAR:    PAW_PBE W 08Apr2002                   
 POTCAR:    PAW_PBE C 08Apr2002                   
 POTCAR:    PAW_PBE O 08Apr2002                   
 -----------------------------------------------------------------------------
|                                                                             |
|           W    W    AA    RRRRR   N    N  II  N    N   GGGG   !!!           |
|           W    W   A  A   R    R  NN   N  II  NN   N  G    G  !!!           |
|           W    W  A    A  R    R  N N  N  II  N N  N  G       !!!           |
|           W WW W  AAAAAA  RRRRR   N  N N  II  N  N N  G  GGG   !            |
|           WW  WW  A    A  R   R   N   NN  II  N   NN  G    G                |
|           W    W  A    A  R    R  N    N  II  N    N   GGGG   !!!           |
|                                                                             |
|     For optimal performance we recommend to set                             |
|       NCORE = 2 up to number-of-cores-per-socket                            |
|     NCORE specifies how many cores store one orbital (NPAR=cpu/NCORE).      |
|     This setting can greatly improve the performance of VASP for DFT.       |
|     The default, NCORE=1 might be grossly inefficient on modern             |
|     multi-core architectures or massively parallel machines. Do your        |
|     own testing! More info at https://www.vasp.at/wiki/index.php/NCORE      |
|     Unfortunately you need to use the default for GW and RPA                |
|     calculations (for HF NCORE is supported but not extensively tested      |
|     yet).                                                                   |
|                                                                             |
 -----------------------------------------------------------------------------

 POTCAR:    PAW_PBE Au 04Oct2007                  
   VRHFIN =Au: s1d10                                                                                
   LEXCH  = PE                                                                                      
   EATOM  =   926.0867 eV,   68.0654 Ry                                                             
                                                                                                    
   TITEL  = PAW_PBE Au 04Oct2007                                                                    
   LULTRA =        F    use ultrasoft PP ?                                                          
   IUNSCR =        1    unscreen: 0-lin 1-nonlin 2-no                                               
   RPACOR =    2.330    partial core radius                                                         
   POMASS =  196.966; ZVAL   =   11.000    mass and valenz                                          
   RCORE  =    2.500    outmost cutoff radius                                                       
   RWIGS  =    2.840; RWIGS  =    1.503    wigner-seitz radius (au A)                               
   ENMAX  =  229.943; ENMIN  =  172.457 eV                                                          
   ICORE  =        3    local potential                                                             
   LCOR   =        T    correct aug charges                                                         
   LPAW   =        T    paw PP                                                                      
   EAUG   =  356.670                                                                                
   DEXC   =    0.000                                                                                
   RMAX   =    2.562    core radius for proj-oper                                                   
   RAUG   =    1.300    factor for augmentation sphere                                              
   RDEP   =    2.598    radius for radial grids                                                     
   RDEPT  =    2.193    core radius for aug-charge                                                  
                                                                                                    
   Atomic configuration                                                                             
   16 entries                                                                                       
     n  l   j            E        occ.                                                              
     1  0  0.50    -80748.5001   2.0000                                                             
     2  0  0.50    -14244.7466   2.0000                                                             
     2  1  1.50    -12310.9591   6.0000                                                             
     3  0  0.50     -3362.1768   2.0000                                                             
     3  1  1.50     -2801.5463   6.0000                                                             
     3  2  2.50     -2203.8206  10.0000                                                             
     4  0  0.50      -729.8168   2.0000                                                             
     4  1  1.50      -546.0527   6.0000                                                             
     4  2  2.50      -325.7302  10.0000                                                             
     4  3  3.50       -81.1472  14.0000                                                             
     5  0  0.50      -108.3201   2.0000                                                             
     5  1  1.50       -59.7479   6.0000                                                             
     5  2  2.50        -6.8783  10.0000                                                             
     6  0  0.50        -5.7602   1.0000                                                             
     6  1  1.50        -6.8029   0.0000                                                             
     5  3  2.50        -1.3606   0.0000                                                             
   Description                                                                                      
     l       E           TYP  RCUT    TYP  RCUT                                                     
     2     -6.8782861     23  2.500                                                                 
     2     -8.2388687     23  2.500                                                                 
     0     -5.7601759     23  2.500                                                                 
     0     -0.8493231     23  2.500                                                                 
     1     -2.7211652     23  2.500                                                                 
     1     27.2116520     23  2.500                                                                 
     3     -1.3605826     23  2.500                                                                 
  local pseudopotential read in
  partial core-charges read in
  partial kinetic energy density read in
  atomic valenz-charges read in
  non local Contribution for L=           2  read in
    real space projection operators read in
  non local Contribution for L=           2  read in
    real space projection operators read in
  non local Contribution for L=           0  read in
    real space projection operators read in
  non local Contribution for L=           0  read in
    real space projection operators read in
  non local Contribution for L=           1  read in
    real space projection operators read in
  non local Contribution for L=           1  read in
    real space projection operators read in
    PAW grid and wavefunctions read in
 
   number of l-projection  operators is LMAX  =           6
   number of lm-projection operators is LMMAX =          18
 
 POTCAR:    PAW_PBE W 08Apr2002                   
   VRHFIN =W : 6s5d                                                                                 
   LEXCH  = PE                                                                                      
   EATOM  =   204.6103 eV,   15.0384 Ry                                                             
                                                                                                    
   TITEL  = PAW_PBE W 08Apr2002                                                                     
   LULTRA =        F    use ultrasoft PP ?                                                          
   IUNSCR =        1    unscreen: 0-lin 1-nonlin 2-no                                               
   RPACOR =    2.330    partial core radius                                                         
   POMASS =  183.850; ZVAL   =    6.000    mass and valenz                                          
   RCORE  =    2.750    outmost cutoff radius                                                       
   RWIGS  =    2.750; RWIGS  =    1.455    wigner-seitz radius (au A)                               
   ENMAX  =  223.057; ENMIN  =  167.293 eV                                                          
   RCLOC  =    2.147    cutoff for local pot                                                        
   LCOR   =        T    correct aug charges                                                         
   LPAW   =        T    paw PP                                                                      
   EAUG   =  373.438                                                                                
   DEXC   =    0.000                                                                                
   RMAX   =    2.801    core radius for proj-oper                                                   
   RAUG   =    1.300    factor for augmentation sphere                                              
   RDEP   =    2.886    radius for radial grids                                                     
   RDEPT  =    2.230    core radius for aug-charge                                                  
                                                                                                    
   Atomic configuration                                                                             
   16 entries                                                                                       
     n  l   j            E        occ.                                                              
     1  0  0.50    -69465.5836   2.0000                                                             
     2  0  0.50    -11986.2642   2.0000                                                             
     2  1  1.50    -10479.8616   6.0000                                                             
     3  0  0.50     -2759.0758   2.0000                                                             
     3  1  1.50     -2313.1857   6.0000                                                             
     3  2  2.50     -1801.1185  10.0000                                                             
     4  0  0.50      -567.6791   2.0000                                                             
     4  1  1.50      -421.4694   6.0000                                                             
     4  2  2.50      -236.3473  10.0000                                                             
     4  3  3.50       -31.2666  14.0000                                                             
     5  0  0.50       -77.1085   2.0000                                                             
     5  1  1.50       -41.3856   6.0000                                                             
     5  2  2.50        -3.3185   5.0000                                                             
     6  0  0.50        -5.1438   1.0000                                                             
     6  1  0.50        -3.8096   0.0000                                                             
     5  3  2.50        -1.3606   0.0000                                                             
   Description                                                                                      
     l       E           TYP  RCUT    TYP  RCUT                                                     
     2     -3.3185288     23  2.500                                                                 
     2     -1.5965414     23  2.500                                                                 
     0     -5.1438054     23  2.500                                                                 
     0      4.9117504     23  2.500                                                                 
     1      2.7211652     23  2.750                                                                 
     1     27.2116520     23  2.750                                                                 
  local pseudopotential read in
  partial core-charges read in
  partial kinetic energy density read in
  atomic valenz-charges read in
  non local Contribution for L=           2  read in
    real space projection operators read in
  non local Contribution for L=           2  read in
    real space projection operators read in
  non local Contribution for L=           0  read in
    real space projection operators read in
  non local Contribution for L=           0  read in
    real space projection operators read in
  non local Contribution for L=           1  read in
    real space projection operators read in
  non local Contribution for L=           1  read in
    real space projection operators read in
    PAW grid and wavefunctions read in
 
   number of l-projection  operators is LMAX  =           6
   number of lm-projection operators is LMMAX =          18
 
 POTCAR:    PAW_PBE C 08Apr2002                   
   VRHFIN =C: s2p2                                                                                  
   LEXCH  = PE                                                                                      
   EATOM  =   147.1560 eV,   10.8157 Ry                                                             
                                                                                                    
   TITEL  = PAW_PBE C 08Apr2002                                                                     
   LULTRA =        F    use ultrasoft PP ?                                                          
   IUNSCR =        1    unscreen: 0-lin 1-nonlin 2-no                                               
   RPACOR =    1.200    partial core radius                                                         
   POMASS =   12.011; ZVAL   =    4.000    mass and valenz                                          
   RCORE  =    1.500    outmost cutoff radius                                                       
   RWIGS  =    1.630; RWIGS  =    0.863    wigner-seitz radius (au A)                               
   ENMAX  =  400.000; ENMIN  =  300.000 eV                                                          
   ICORE  =        2    local potential                                                             
   LCOR   =        T    correct aug charges                                                         
   LPAW   =        T    paw PP                                                                      
   EAUG   =  644.873                                                                                
   DEXC   =    0.000                                                                                
   RMAX   =    1.529    core radius for proj-oper                                                   
   RAUG   =    1.300    factor for augmentation sphere                                              
   RDEP   =    1.501    radius for radial grids                                                     
   RDEPT  =    1.300    core radius for aug-charge                                                  
                                                                                                    
   Atomic configuration                                                                             
    4 entries                                                                                       
     n  l   j            E        occ.                                                              
     1  0  0.50      -273.3789   2.0000                                                             
     2  0  0.50       -13.7508   2.0000                                                             
     2  1  0.50        -5.2854   2.0000                                                             
     3  2  1.50        -5.4423   0.0000                                                             
   Description                                                                                      
     l       E           TYP  RCUT    TYP  RCUT                                                     
     0    -13.7508458     23  1.200                                                                 
     0     -8.2022199     23  1.200                                                                 
     1     -5.2854383     23  1.500                                                                 
     1     34.0145650     23  1.500                                                                 
     2     -5.4423304      7  1.500                                                                 
  local pseudopotential read in
  partial core-charges read in
  partial kinetic energy density read in
  atomic valenz-charges read in
  non local Contribution for L=           0  read in
    real space projection operators read in
  non local Contribution for L=           0  read in
    real space projection operators read in
  non local Contribution for L=           1  read in
    real space projection operators read in
  non local Contribution for L=           1  read in
    real space projection operators read in
    PAW grid and wavefunctions read in
 
   number of l-projection  operators is LMAX  =           4
   number of lm-projection operators is LMMAX =           8
 
 POTCAR:    PAW_PBE O 08Apr2002                   
   VRHFIN =O: s2p4                                                                                  
   LEXCH  = PE                                                                                      
   EATOM  =   432.3788 eV,   31.7789 Ry                                                             
                                                                                                    
   TITEL  = PAW_PBE O 08Apr2002                                                                     
   LULTRA =        F    use ultrasoft PP ?                                                          
   IUNSCR =        1    unscreen: 0-lin 1-nonlin 2-no                                               
   RPACOR =    1.200    partial core radius                                                         
   POMASS =   16.000; ZVAL   =    6.000    mass and valenz                                          
   RCORE  =    1.520    outmost cutoff radius                                                       
   RWIGS  =    1.550; RWIGS  =    0.820    wigner-seitz radius (au A)                               
   ENMAX  =  400.000; ENMIN  =  300.000 eV                                                          
   ICORE  =        2    local potential                                                             
   LCOR   =        T    correct aug charges                                                         
   LPAW   =        T    paw PP                                                                      
   EAUG   =  605.392                                                                                
   DEXC   =    0.000                                                                                
   RMAX   =    1.553    core radius for proj-oper                                                   
   RAUG   =    1.300    factor for augmentation sphere                                              
   RDEP   =    1.550    radius for radial grids                                                     
   RDEPT  =    1.329    core radius for aug-charge                                                  
                                                                                                    
   Atomic configuration                                                                             
    4 entries                                                                                       
     n  l   j            E        occ.                                                              
     1  0  0.50      -514.6923   2.0000                                                             
     2  0  0.50       -23.9615   2.0000                                                             
     2  1  0.50        -9.0305   4.0000                                                             
     3  2  1.50        -9.5241   0.0000                                                             
   Description                                                                                      
     l       E           TYP  RCUT    TYP  RCUT                                                     
     0    -23.9615318     23  1.200                                                                 
     0     -9.5240782     23  1.200                                                                 
     1     -9.0304911     23  1.520                                                                 
     1      8.1634956     23  1.520                                                                 
     2     -9.5240782      7  1.500                                                                 
  local pseudopotential read in
  partial core-charges read in
  partial kinetic energy density read in
  kinetic energy density of atom read in
  atomic valenz-charges read in
  non local Contribution for L=           0  read in
    real space projection operators read in
  non local Contribution for L=           0  read in
    real space projection operators read in
  non local Contribution for L=           1  read in
    real space projection operators read in
  non local Contribution for L=           1  read in
    real space projection operators read in
    PAW grid and wavefunctions read in
 
   number of l-projection  operators is LMAX  =           4
   number of lm-projection operators is LMMAX =           8
 
 Optimization of the real space projectors (new method)

 maximal supplied QI-value         = 15.12
 optimisation between [QCUT,QGAM] = [ 11.34, 22.83] = [ 36.00,145.93] Ry 
 Optimized for a Real-space Cutoff    1.39 Angstroem

   l    n(q)    QCUT    max X(q) W(low)/X(q) W(high)/X(q)  e(spline) 
   2      9    11.338    60.898    0.39E-03    0.42E-03    0.21E-06
   2      9    11.338    58.894    0.40E-03    0.42E-03    0.22E-06
   0      9    11.338   109.617    0.13E-03    0.20E-04    0.13E-06
   0      9    11.338    75.026    0.13E-03    0.20E-04    0.13E-06
   1      9    11.338    16.344    0.33E-04    0.24E-03    0.18E-06
   1      9    11.338    10.160    0.26E-04    0.19E-03    0.15E-06
 Optimization of the real space projectors (new method)

 maximal supplied QI-value         = 13.61
 optimisation between [QCUT,QGAM] = [ 11.43, 22.86] = [ 36.58,146.31] Ry 
 Optimized for a Real-space Cutoff    1.56 Angstroem

   l    n(q)    QCUT    max X(q) W(low)/X(q) W(high)/X(q)  e(spline) 
   2     10    11.429   130.855    0.22E-03    0.64E-03    0.11E-05
   2     10    11.429   114.007    0.22E-03    0.64E-03    0.11E-05
   0     11    11.429    84.709    0.39E-04    0.67E-04    0.23E-06
   0     11    11.429    49.163    0.35E-04    0.62E-04    0.21E-06
   1     10    11.429    15.765    0.84E-04    0.15E-03    0.24E-06
   1     10    11.429    10.638    0.58E-04    0.12E-03    0.19E-06
 Optimization of the real space projectors (new method)

 maximal supplied QI-value         = 25.13
 optimisation between [QCUT,QGAM] = [ 11.31, 22.87] = [ 35.82,146.48] Ry 
 Optimized for a Real-space Cutoff    1.00 Angstroem

   l    n(q)    QCUT    max X(q) W(low)/X(q) W(high)/X(q)  e(spline) 
   0      7    11.310   115.676    0.43E-03    0.13E-02    0.19E-06
   0      7    11.310    87.132    0.43E-03    0.13E-02    0.18E-06
   1      6    11.310     4.429    0.42E-03    0.74E-03    0.11E-06
   1      6    11.310     2.733    0.34E-03    0.55E-03    0.92E-07
 Optimization of the real space projectors (new method)

 maximal supplied QI-value         = 24.76
 optimisation between [QCUT,QGAM] = [ 11.39, 22.77] = [ 36.31,145.25] Ry 
 Optimized for a Real-space Cutoff    1.00 Angstroem

   l    n(q)    QCUT    max X(q) W(low)/X(q) W(high)/X(q)  e(spline) 
   0      7    11.387    20.381    0.39E-03    0.13E-02    0.15E-06
   0      7    11.387    15.268    0.42E-03    0.14E-02    0.17E-06
   1      6    11.387     5.964    0.41E-03    0.11E-02    0.17E-06
   1      6    11.387     5.382    0.39E-03    0.87E-03    0.15E-06
  PAW_PBE Au 04Oct2007                  :
 energy of atom  1       EATOM= -926.0867
 kinetic energy error for atom=    0.0042 (will be added to EATOM!!)
  PAW_PBE W 08Apr2002                   :
 energy of atom  2       EATOM= -204.6103
 kinetic energy error for atom=    0.0017 (will be added to EATOM!!)
  PAW_PBE C 08Apr2002                   :
 energy of atom  3       EATOM= -147.1560
 kinetic energy error for atom=    0.0076 (will be added to EATOM!!)
  PAW_PBE O 08Apr2002                   :
 energy of atom  4       EATOM= -432.3788
 kinetic energy error for atom=    0.0224 (will be added to EATOM!!)
 
 
 POSCAR: Au-W-CO
  positions in direct lattice
  velocities in cartesian coordinates
 exchange correlation table for  LEXCH =        8
   RHO(1)=    0.500       N(1)  =     2000
   RHO(2)=  100.500       N(2)  =     4000

 VTST: version 3.2, (02/03/18)

 CHAIN: initializing optimizer
 
 OPT: Using VASP Conjugate-Gradient optimizer
 CHAIN: Read ICHAIN            0
 
 POSCAR: Au-W-CO
  positions in direct lattice
  velocities in cartesian coordinates
 


--------------------------------------------------------------------------------------------------------


 ion  position               nearest neighbor table
   1  0.000  0.000  0.238-  16 2.94  12 2.94   6 2.94   8 2.94   7 2.94   3 2.94  10 2.94   4 2.94
                             2 2.94
   2  0.333  0.000  0.238-   9 2.94  11 2.94  17 2.94  10 2.94   8 2.94   4 2.94   5 2.94   1 2.94
                             3 2.94
   3  0.667  0.000  0.238-   7 2.94  18 2.94  12 2.94   1 2.94  11 2.94   5 2.94   6 2.94   9 2.94
                             2 2.94
   4  0.000  0.333  0.238-  10 2.94   6 2.94   5 2.94  13 2.94   2 2.94  15 2.94   9 2.94   1 2.94
                             7 2.94
   5  0.333  0.333  0.238-  13 2.94   7 2.94  11 2.94   4 2.94   2 2.94  14 2.94   3 2.94   8 2.94
                             6 2.94
   6  0.667  0.333  0.238-  15 2.94  14 2.94   1 2.94  12 2.94   4 2.94   9 2.94   8 2.94   3 2.94
                             5 2.94
   7  0.000  0.667  0.238-  18 2.94   3 2.94  16 2.94   5 2.94   1 2.94  13 2.94   8 2.94   4 2.94
                             9 2.94
   8  0.333  0.667  0.238-   9 2.94  17 2.94   1 2.94   2 2.94  14 2.94  16 2.94   6 2.94   7 2.94
                             5 2.94
   9  0.667  0.667  0.238-   2 2.94   8 2.94  17 2.94   6 2.94  15 2.94   4 2.94   3 2.94  18 2.94
                             7 2.94
  10  0.111  0.111  0.346-  20 2.90  11 2.94  17 2.94   2 2.94   4 2.94   1 2.94  12 2.94  16 2.94
                            13 2.94  15 2.94  26 2.96  19 2.96
  11  0.444  0.111  0.346-  20 2.91  21 2.91  13 2.94   2 2.94  10 2.94  17 2.94   5 2.94   3 2.94
                            18 2.94  14 2.94  12 2.94  27 2.94
  12  0.778  0.111  0.346-  21 2.90  16 2.94  18 2.94   1 2.94  14 2.94  15 2.94   3 2.94   6 2.94
                            10 2.94  11 2.94  25 2.96  19 2.96
  13  0.111  0.444  0.346-  23 2.91  20 2.91   5 2.94  18 2.94  11 2.94   7 2.94   4 2.94  16 2.94
                            10 2.94  14 2.94  15 2.94  22 2.94
  14  0.444  0.444  0.346-  21 2.91  23 2.91  15 2.94   6 2.94  12 2.94   8 2.94  17 2.94   5 2.94
                            16 2.94  13 2.94  11 2.94  24 2.94
  15  0.778  0.444  0.346-  24 2.92  22 2.92  14 2.94   6 2.94  17 2.94  12 2.94   9 2.94   4 2.94
                            10 2.94  13 2.94  18 2.94  19 2.95
  16  0.111  0.778  0.346-  23 2.90  18 2.94  12 2.94   7 2.94   1 2.94   8 2.94  13 2.94  10 2.94
                            14 2.94  17 2.94  25 2.96  26 2.96
  17  0.444  0.778  0.346-  27 2.92  24 2.92   9 2.94  15 2.94   2 2.94  10 2.94  11 2.94   8 2.94
                            14 2.94  16 2.94  18 2.94  26 2.95
  18  0.778  0.778  0.346-  22 2.92  27 2.92  16 2.94   7 2.94  13 2.94  12 2.94   3 2.94  11 2.94
                             9 2.94  15 2.94  17 2.94  25 2.95
  19  0.888  0.224  0.455-  24 2.93  22 2.93  21 2.93  20 2.93  28 2.94  15 2.95  26 2.96  25 2.96
                            10 2.96  12 2.96  32 3.04  31 3.04
  20  0.222  0.222  0.452-  36 2.74  10 2.90  11 2.91  13 2.91  26 2.93  19 2.93  23 2.95  21 2.95
                            27 2.96  22 2.96  29 2.98  31 2.98
  21  0.557  0.222  0.452-  36 2.74  12 2.90  14 2.91  11 2.91  25 2.93  19 2.93  20 2.95  23 2.95
                            27 2.96  24 2.96  30 2.98  32 2.98
  22  0.886  0.557  0.454-  24 2.90  27 2.90  18 2.92  15 2.92  25 2.93  19 2.93  13 2.94  35 2.95
                            23 2.96  20 2.96  33 3.02  31 3.02
  23  0.222  0.557  0.452-  36 2.74  16 2.90  13 2.91  14 2.91  25 2.93  26 2.93  20 2.95  21 2.95
                            22 2.96  24 2.96  33 2.98  34 2.98
  24  0.557  0.557  0.454-  27 2.90  22 2.90  15 2.92  17 2.92  26 2.93  19 2.93  14 2.94  35 2.95
                            21 2.96  23 2.96  32 3.02  34 3.02
  25  0.888  0.888  0.455-  22 2.93  27 2.93  23 2.93  21 2.93  28 2.94  18 2.95  19 2.96  26 2.96
                            16 2.96  12 2.96  33 3.04  30 3.04
  26  0.224  0.888  0.455-  27 2.93  24 2.93  20 2.93  23 2.93  28 2.94  17 2.95  19 2.96  25 2.96
                            10 2.96  16 2.96  29 3.04  34 3.04
  27  0.557  0.886  0.454-  24 2.90  22 2.90  17 2.92  18 2.92  26 2.93  25 2.93  11 2.94  35 2.95
                            20 2.96  21 2.96  29 3.02  30 3.02
  28  0.000  0.000  0.563-  25 2.94  19 2.94  26 2.94  34 3.00  32 3.00  33 3.00  30 3.00  31 3.00
                            29 3.00
  29  0.334  0.013  0.566-  30 2.82  31 2.82  36 2.84  20 2.98  35 3.00  28 3.00  27 3.02  26 3.04
                            34 3.17
  30  0.653  0.013  0.566-  29 2.82  32 2.82  36 2.84  21 2.98  35 3.00  28 3.00  27 3.02  25 3.04
                            33 3.17
  31  0.013  0.334  0.566-  33 2.82  29 2.82  36 2.84  20 2.98  35 3.00  28 3.00  22 3.02  19 3.04
                            32 3.17
  32  0.653  0.334  0.566-  34 2.82  30 2.82  36 2.84  21 2.98  35 3.00  28 3.00  24 3.02  19 3.04
                            31 3.17
  33  0.013  0.653  0.566-  31 2.82  34 2.82  36 2.84  23 2.98  35 3.00  28 3.00  22 3.02  25 3.04
                            30 3.17
  34  0.334  0.653  0.566-  32 2.82  33 2.82  36 2.84  23 2.98  35 3.00  28 3.00  24 3.02  26 3.04
                            29 3.17
  35  0.667  0.667  0.563-  24 2.95  27 2.95  22 2.95  29 3.00  34 3.00  32 3.00  31 3.00  30 3.00
                            33 3.00
  36  0.333  0.333  0.549-  37 1.99  20 2.74  23 2.74  21 2.74  33 2.84  31 2.84  29 2.84  30 2.84
                            34 2.84  32 2.84
  37  0.333  0.333  0.639-  38 1.17  36 1.99
  38  0.333  0.333  0.692-  37 1.17
 
  LATTYP: Found a hexagonal cell.
 ALAT       =     8.8135128021
 C/A-ratio  =     2.5184286595
  
  Lattice vectors:
  
 A1 = (  -4.4067569092,  -7.6327256898,   0.0000000000)
 A2 = (   8.8135128021,   0.0000000000,   0.0000000000)
 A3 = (   0.0000000000,   0.0000000000,  22.1962032318)


Analysis of symmetry for initial positions (statically):
=====================================================================
 Subroutine PRICEL returns:
 Original cell was already a primitive cell.
 

 Routine SETGRP: Setting up the symmetry group for a 
 hexagonal supercell.


 Subroutine GETGRP returns: Found  6 space group operations
 (whereof  6 operations were pure point group operations)
 out of a pool of 24 trial point group operations.


The static configuration has the point symmetry C_3v.


Analysis of symmetry for dynamics (positions and initial velocities):
=====================================================================
 Subroutine PRICEL returns:
 Original cell was already a primitive cell.
 

 Routine SETGRP: Setting up the symmetry group for a 
 hexagonal supercell.


 Subroutine GETGRP returns: Found  6 space group operations
 (whereof  6 operations were pure point group operations)
 out of a pool of 24 trial point group operations.


The dynamic configuration has the point symmetry C_3v.


Analysis of constrained symmetry for selective dynamics:
=====================================================================
 Subroutine PRICEL returns:
 Original cell was already a primitive cell.
 

 Routine SETGRP: Setting up the symmetry group for a 
 hexagonal supercell.


 Subroutine GETGRP returns: Found  6 space group operations
 (whereof  6 operations were pure point group operations)
 out of a pool of 24 trial point group operations.


The constrained configuration has the point symmetry C_3v.


 Subroutine INISYM returns: Found  6 space group operations
 (whereof  6 operations are pure point group operations),
 and found     1 'primitive' translations


----------------------------------------------------------------------------------------

                                     Primitive cell                                     

  volume of cell :    1493.1636

  direct lattice vectors                    reciprocal lattice vectors
     8.813512802  0.000000000  0.000000000     0.113462137 -0.065507406  0.000000000
     4.406756909  7.632725690  0.000000000     0.000000000  0.131014796  0.000000000
     0.000000000  0.000000000 22.196203232     0.000000000  0.000000000  0.045052750

  length of vectors
     8.813512802  8.813512802 22.196203232     0.131014796  0.131014796  0.045052750

  position of ions in fractional coordinates (direct lattice)
     0.000000000  0.000000000  0.237895638
     0.333333343  0.000000000  0.237895638
     0.666666687  0.000000000  0.237895638
     1.000000000  0.333333343  0.237895638
     0.333333313  0.333333343  0.237895638
     0.666666687  0.333333343  0.237895638
     1.000000000  0.666666687  0.237895638
     0.333333343  0.666666687  0.237895638
     0.666666627  0.666666687  0.237895638
     0.111111119  0.111111112  0.345965207
     0.444444418  0.111111112  0.345965207
     0.777777791  0.111111112  0.345965207
     0.111111127  0.444444448  0.345965207
     0.444444478  0.444444448  0.345965207
     0.777777731  0.444444448  0.345965207
     0.111111090  0.777777791  0.345965207
     0.444444448  0.777777791  0.345965207
     0.777777851  0.777777791  0.345965207
     0.888108940  0.223782136  0.455069452
     0.221743954  0.221743939  0.452335038
     0.556512152  0.221743939  0.452335038
     0.886138604  0.556930728  0.453520865
     0.221743909  0.556512152  0.452335038
     0.556930728  0.556930728  0.453520865
     0.888108940  0.888108940  0.455069452
     0.223782166  0.888108940  0.455069452
     0.556930668  0.886138604  0.453520865
     0.000000000  0.000000000  0.563124211
     0.333684557  0.013163897  0.565613076
     0.653151576  0.013163897  0.565613076
     0.013163897  0.333684557  0.565613076
     0.653151576  0.333684557  0.565613076
     0.013163897  0.653151576  0.565613076
     0.333684557  0.653151576  0.565613076
     0.666666627  0.666666687  0.563100484
     0.333333313  0.333333343  0.548994823
     0.333333313  0.333333343  0.638857868
     0.333333313  0.333333343  0.691511906

  ion indices of the primitive-cell ions
   primitive index   ion index
                 1           1
                 2           2
                 3           3
                 4           4
                 5           5
                 6           6
                 7           7
                 8           8
                 9           9
                10          10
                11          11
                12          12
                13          13
                14          14
                15          15
                16          16
                17          17
                18          18
                19          19
                20          20
                21          21
                22          22
                23          23
                24          24
                25          25
                26          26
                27          27
                28          28
                29          29
                30          30
                31          31
                32          32
                33          33
                34          34
                35          35
                36          36
                37          37
                38          38

----------------------------------------------------------------------------------------

 
 
 KPOINTS: Automatic mesh                          

Automatic generation of k-mesh.
 Grid dimensions read from file:
 generate k-points for:    8    8    1

 Generating k-lattice:

  Cartesian coordinates                     Fractional coordinates (reciprocal lattice)
     0.014182767 -0.008188426  0.000000000     0.125000000 -0.000000000  0.000000000
     0.000000000  0.016376850  0.000000000     0.000000000  0.125000000  0.000000000
     0.000000000  0.000000000  0.045052750     0.000000000  0.000000000  1.000000000

  Length of vectors
     0.016376850  0.016376850  0.045052750

  Shift w.r.t. Gamma in fractional coordinates (k-lattice)
     0.000000000  0.000000000  0.000000000

 TETIRR: Found     36 inequivalent tetrahedra from      384
 
 Subroutine IBZKPT returns following result:
 ===========================================
 
 Found     10 irreducible k-points:
 
 Following reciprocal coordinates:
            Coordinates               Weight
  0.000000  0.000000  0.000000      1.000000
  0.125000 -0.000000  0.000000      6.000000
  0.250000 -0.000000  0.000000      6.000000
  0.375000  0.000000  0.000000      6.000000
  0.500000 -0.000000  0.000000      3.000000
  0.250000  0.125000  0.000000      6.000000
  0.375000  0.125000  0.000000     12.000000
  0.500000  0.125000  0.000000     12.000000
  0.500000  0.250000  0.000000      6.000000
 -0.375000  0.250000  0.000000      6.000000
 
 Following cartesian coordinates:
            Coordinates               Weight
  0.000000  0.000000  0.000000      1.000000
  0.014183 -0.008188  0.000000      6.000000
  0.028366 -0.016377  0.000000      6.000000
  0.042548 -0.024565  0.000000      6.000000
  0.056731 -0.032754  0.000000      3.000000
  0.028366 -0.000000  0.000000      6.000000
  0.042548 -0.008188  0.000000     12.000000
  0.056731 -0.016377  0.000000     12.000000
  0.056731 -0.000000  0.000000      6.000000
 -0.042548  0.057319  0.000000      6.000000
 


--------------------------------------------------------------------------------------------------------




 Dimension of arrays:
   k-points           NKPTS =     10   k-points in BZ     NKDIM =     10   number of bands    NBANDS=    252
   number of dos      NEDOS =    301   number of ions     NIONS =     38
   non local maximal  LDIM  =      6   non local SUM 2l+1 LMDIM =     18
   total plane-waves  NPLWV = 290304
   max r-space proj   IRMAX =   3166   max aug-charges    IRDMAX=  12088
   dimension x,y,z NGX =    48 NGY =   48 NGZ =  126
   dimension x,y,z NGXF=    96 NGYF=   96 NGZF=  252
   support grid    NGXF=    96 NGYF=   96 NGZF=  252
   ions per type =              35   1   1   1
   NGX,Y,Z   is equivalent  to a cutoff of   9.05,  9.05,  9.44 a.u.
   NGXF,Y,Z  is equivalent  to a cutoff of  18.11, 18.11, 18.87 a.u.

 SYSTEM =  unknown system                          
 POSCAR =  Au-W-CO                                 

 Startparameter for this run:
   NWRITE =      2    write-flag & timer
   PREC   = normal    normal or accurate (medium, high low for compatibility)
   ISTART =      0    job   : 0-new  1-cont  2-samecut
   ICHARG =     11    charge: 1-file 2-atom 10-const
   ISPIN  =      1    spin polarized calculation?
   LNONCOLLINEAR =      F non collinear calculations
   LSORBIT =      F    spin-orbit coupling
   INIWAV =      1    electr: 0-lowe 1-rand  2-diag
   LASPH  =      F    aspherical Exc in radial PAW
   METAGGA=      F    non-selfconsistent MetaGGA calc.

 Electronic Relaxation 1
   ENCUT  =  500.0 eV  36.75 Ry    6.06 a.u.  16.07 16.07 40.47*2*pi/ulx,y,z
   ENINI  =  500.0     initial cutoff
   ENAUG  =  644.9 eV  augmentation charge cutoff
   NELM   =    150;   NELMIN=  2; NELMDL= -5     # of ELM steps 
   EDIFF  = 0.1E-04   stopping-criterion for ELM
   LREAL  =      T    real-space projection
   NLSPLINE    = F    spline interpolate recip. space projectors
   LCOMPAT=      F    compatible to vasp.4.4
   GGA_COMPAT  = T    GGA compatible to vasp.4.4-vasp.4.6
   LMAXPAW     = -100 max onsite density
   LMAXMIX     =    2 max onsite mixed and CHGCAR
   VOSKOWN=      0    Vosko Wilk Nusair interpolation
   ROPT   =   -0.00050  -0.00050  -0.00050  -0.00050
 Ionic relaxation
   EDIFFG = -.1E-01   stopping-criterion for IOM
   NSW    =      0    number of steps for IOM
   NBLOCK =      1;   KBLOCK =      1    inner block; outer block 
   IBRION =     -1    ionic relax: 0-MD 1-quasi-New 2-CG
   NFREE  =      1    steps in history (QN), initial steepest desc. (CG)
   ISIF   =      2    stress and relaxation
   IWAVPR =     10    prediction:  0-non 1-charg 2-wave 3-comb
   ISYM   =      2    0-nonsym 1-usesym 2-fastsym
   LCORR  =      T    Harris-Foulkes like correction to forces

   POTIM  = 0.5000    time-step for ionic-motion
   TEIN   =    0.0    initial temperature
   TEBEG  =    0.0;   TEEND  =   0.0 temperature during run
   SMASS  =  -3.00    Nose mass-parameter (am)
   estimated Nose-frequenzy (Omega)   =  0.10E-29 period in steps = 0.13E+47 mass=  -0.178E-26a.u.
   SCALEE = 1.0000    scale energy and forces
   NPACO  =    256;   APACO  = 16.0  distance and # of slots for P.C.
   PSTRESS=    0.0 pullay stress

  Mass of Ions in am
   POMASS = 196.97183.85 12.01 16.00
  Ionic Valenz
   ZVAL   =  11.00  6.00  4.00  6.00
  Atomic Wigner-Seitz radii
   RWIGS  =  -1.00 -1.00 -1.00 -1.00
  virtual crystal weights 
   VCA    =   1.00  1.00  1.00  1.00
   NELECT =     401.0000    total number of electrons
   NUPDOWN=      -1.0000    fix difference up-down

 DOS related values:
   EMIN   =  10.00;   EMAX   =-10.00  energy-range for DOS
   EFERMI =   0.00
   ISMEAR =    -5;   SIGMA  =   0.10  broadening in eV -4-tet -1-fermi 0-gaus

 Electronic relaxation 2 (details)
   IALGO  =     68    algorithm
   LDIAG  =      T    sub-space diagonalisation (order eigenvalues)
   LSUBROT=      F    optimize rotation matrix (better conditioning)
   TURBO    =      0    0=normal 1=particle mesh
   IRESTART =      0    0=no restart 2=restart with 2 vectors
   NREBOOT  =      0    no. of reboots
   NMIN     =      0    reboot dimension
   EREF     =   0.00    reference energy to select bands
   IMIX   =      4    mixing-type and parameters
     AMIX     =   0.40;   BMIX     =  1.00
     AMIX_MAG =   1.60;   BMIX_MAG =  1.00
     AMIN     =   0.10
     WC   =   100.;   INIMIX=   1;  MIXPRE=   1;  MAXMIX= -45

 Intra band minimization:
   WEIMIN = 0.0000     energy-eigenvalue tresh-hold
   EBREAK =  0.99E-08  absolut break condition
   DEPER  =   0.30     relativ break condition  

   TIME   =   0.40     timestep for ELM

  volume/ion in A,a.u.               =      39.29       265.17
  Fermi-wavevector in a.u.,A,eV,Ry     =   1.056219  1.995964 15.178630  1.115598
  Thomas-Fermi vector in A             =   2.191446
 
 Write flags
   LWAVE        =      F    write WAVECAR
   LDOWNSAMPLE  =      F    k-point downsampling of WAVECAR
   LCHARG       =      F    write CHGCAR
   LVTOT        =      F    write LOCPOT, total local potential
   LVHAR        =      F    write LOCPOT, Hartree potential only
   LELF         =      F    write electronic localiz. function (ELF)
   LORBIT       =     10    0 simple, 1 ext, 2 COOP (PROOUT), +10 PAW based schemes


 Dipole corrections
   LMONO  =      F    monopole corrections only (constant potential shift)
   LDIPOL =      F    correct potential (dipole corrections)
   IDIPOL =      0    1-x, 2-y, 3-z, 4-all directions 
   EPSILON=  1.0000000 bulk dielectric constant

 Exchange correlation treatment:
   GGA     =    --    GGA type
   LEXCH   =     8    internal setting for exchange type
   VOSKOWN=      0    Vosko Wilk Nusair interpolation
   LHFCALC =     F    Hartree Fock is set to
   LHFONE  =     F    Hartree Fock one center treatment
   AEXX    =    0.0000 exact exchange contribution

 Linear response parameters
   LEPSILON=     F    determine dielectric tensor
   LRPA    =     F    only Hartree local field effects (RPA)
   LNABLA  =     F    use nabla operator in PAW spheres
   LVEL    =     F    velocity operator in full k-point grid
   LINTERFAST=   F  fast interpolation
   KINTER  =     0    interpolate to denser k-point grid
   CSHIFT  =0.1000    complex shift for real part using Kramers Kronig
   OMEGAMAX=  -1.0    maximum frequency
   DEG_THRESHOLD= 0.2000000E-02 threshold for treating states as degnerate
   RTIME   =   -0.100 relaxation time in fs
  (WPLASMAI=    0.000 imaginary part of plasma frequency in eV, 0.658/RTIME)
   DFIELD  = 0.0000000 0.0000000 0.0000000 field for delta impulse in time
 
 Orbital magnetization related:
   ORBITALMAG=     F  switch on orbital magnetization
   LCHIMAG   =     F  perturbation theory with respect to B field
   DQ        =  0.001000  dq finite difference perturbation B field
   LLRAUG    =     F  two centre corrections for induced B field



--------------------------------------------------------------------------------------------------------


 Static calculation
 charge density and potential remain constant during run
 non-spin polarized calculation
 RMM-DIIS sequential band-by-band and
  variant of blocked Davidson during initial phase
 perform sub-space diagonalisation
    before iterative eigenvector-optimisation
 no mixing
 using additional bands           51
 real space projection scheme for non local part
 use partial core corrections
 calculate Harris-corrections to forces 
   (improved forces if not selfconsistent)
 use gradient corrections 
 WARNING: stress and forces are not correct
  (second derivative of E(xc) not defined)
 use of overlap-Matrix (Vanderbilt PP)
 Fermi weights with tetrahedron method with Bloechl corrections


--------------------------------------------------------------------------------------------------------


  energy-cutoff  :      500.00
  volume of cell :     1493.16
      direct lattice vectors                 reciprocal lattice vectors
     8.813512802  0.000000000  0.000000000     0.113462137 -0.065507406  0.000000000
     4.406756909  7.632725690  0.000000000     0.000000000  0.131014796  0.000000000
     0.000000000  0.000000000 22.196203232     0.000000000  0.000000000  0.045052750

  length of vectors
     8.813512802  8.813512802 22.196203232     0.131014796  0.131014796  0.045052750


 
 k-points in units of 2pi/SCALE and weight: Automatic mesh                          
   0.00000000  0.00000000  0.00000000       0.016
   0.01418277 -0.00818843  0.00000000       0.094
   0.02836553 -0.01637685  0.00000000       0.094
   0.04254830 -0.02456528  0.00000000       0.094
   0.05673107 -0.03275370  0.00000000       0.047
   0.02836553 -0.00000000  0.00000000       0.094
   0.04254830 -0.00818843  0.00000000       0.188
   0.05673107 -0.01637685  0.00000000       0.188
   0.05673107 -0.00000000  0.00000000       0.094
  -0.04254830  0.05731898  0.00000000       0.094
 
 k-points in reciprocal lattice and weights: Automatic mesh                          
   0.00000000  0.00000000  0.00000000       0.016
   0.12500000 -0.00000000  0.00000000       0.094
   0.25000000 -0.00000000  0.00000000       0.094
   0.37500000  0.00000000  0.00000000       0.094
   0.50000000 -0.00000000  0.00000000       0.047
   0.25000000  0.12500000  0.00000000       0.094
   0.37500000  0.12500000  0.00000000       0.188
   0.50000000  0.12500000  0.00000000       0.188
   0.50000000  0.25000000  0.00000000       0.094
  -0.37500000  0.25000000  0.00000000       0.094
 
 position of ions in fractional coordinates (direct lattice) 
   0.00000000  0.00000000  0.23789564
   0.33333334  0.00000000  0.23789564
   0.66666669  0.00000000  0.23789564
   0.00000000  0.33333334  0.23789564
   0.33333331  0.33333334  0.23789564
   0.66666669  0.33333334  0.23789564
   0.00000000  0.66666669  0.23789564
   0.33333334  0.66666669  0.23789564
   0.66666663  0.66666669  0.23789564
   0.11111112  0.11111111  0.34596521
   0.44444442  0.11111111  0.34596521
   0.77777779  0.11111111  0.34596521
   0.11111113  0.44444445  0.34596521
   0.44444448  0.44444445  0.34596521
   0.77777773  0.44444445  0.34596521
   0.11111109  0.77777779  0.34596521
   0.44444445  0.77777779  0.34596521
   0.77777785  0.77777779  0.34596521
   0.88810894  0.22378214  0.45506945
   0.22174395  0.22174394  0.45233504
   0.55651215  0.22174394  0.45233504
   0.88613860  0.55693073  0.45352087
   0.22174391  0.55651215  0.45233504
   0.55693073  0.55693073  0.45352087
   0.88810894  0.88810894  0.45506945
   0.22378217  0.88810894  0.45506945
   0.55693067  0.88613860  0.45352087
   0.00000000  0.00000000  0.56312421
   0.33368456  0.01316390  0.56561308
   0.65315158  0.01316390  0.56561308
   0.01316390  0.33368456  0.56561308
   0.65315158  0.33368456  0.56561308
   0.01316390  0.65315158  0.56561308
   0.33368456  0.65315158  0.56561308
   0.66666663  0.66666669  0.56310048
   0.33333331  0.33333334  0.54899482
   0.33333331  0.33333334  0.63885787
   0.33333331  0.33333334  0.69151191
 
 position of ions in cartesian coordinates  (Angst):
   0.00000000  0.00000000  5.28037993
   2.93783769  0.00000000  5.28037993
   5.87567538  0.00000000  5.28037993
   1.46891901  2.54424197  5.28037993
   4.40675643  2.54424197  5.28037993
   7.34459439  2.54424197  5.28037993
   2.93783803  5.08848395  5.28037993
   5.87567571  5.08848395  5.28037993
   8.81351288  5.08848395  5.28037993
   1.46891893  0.84808064  7.67911405
   4.40675623  0.84808064  7.67911405
   7.34459418  0.84808064  7.67911405
   2.93783798  3.39232256  7.67911405
   5.87567574  3.39232256  7.67911405
   8.81351263  3.39232256  7.67911405
   4.40675667  5.93656453  7.67911405
   7.34459449  5.93656453  7.67911405
  10.28243270  5.93656453  7.67911405
   8.81351299  1.70806766 10.10081404
   2.93151481  1.69251066 10.04012044
   5.88199861  1.69251066 10.04012044
  10.26425226  4.25089948 10.06644130
   4.40675655  4.24770460 10.04012044
   7.36277444  4.25089948 10.06644130
  11.74103972  6.77869192 10.10081404
   5.88598719  6.77869192 10.10081404
   8.81351299  6.76365289 10.06644130
   0.00000000  0.00000000 12.49921944
   2.99894321  0.10047641 12.55446278
   5.81456987  0.10047641 12.55446278
   1.58648690  2.54692269 12.55446278
   7.22702651  2.54692269 12.55446278
   2.99430039  4.98532682 12.55446278
   5.81921334  4.98532682 12.55446278
   8.81351288  5.08848395 12.49869278
   4.40675643  2.54424197 12.18560065
   4.40675643  2.54424197 14.18021908
   4.40675643  2.54424197 15.34893881
 


--------------------------------------------------------------------------------------------------------


 k-point   1 :   0.0000 0.0000 0.0000  plane waves:   37827
 k-point   2 :   0.1250-0.0000 0.0000  plane waves:   37876
 k-point   3 :   0.2500-0.0000 0.0000  plane waves:   37924
 k-point   4 :   0.3750 0.0000 0.0000  plane waves:   37904
 k-point   5 :   0.5000-0.0000 0.0000  plane waves:   37912
 k-point   6 :   0.2500 0.1250 0.0000  plane waves:   37858
 k-point   7 :   0.3750 0.1250 0.0000  plane waves:   37928
 k-point   8 :   0.5000 0.1250 0.0000  plane waves:   37924
 k-point   9 :   0.5000 0.2500 0.0000  plane waves:   37926
 k-point  10 :  -0.3750 0.2500 0.0000  plane waves:   37916

 maximum and minimum number of plane-waves per node :     37928    37827

 maximum number of plane-waves:     37928
 maximum index in each direction: 
   IXMAX=   16   IYMAX=   16   IZMAX=   40
   IXMIN=  -16   IYMIN=  -16   IZMIN=  -40


 serial   3D FFT for wavefunctions
 parallel 3D FFT for charge:
    minimum data exchange during FFTs selected (reduces bandwidth)


 total amount of memory used by VASP MPI-rank0   123513. kBytes
=======================================================================

   base      :      30000. kBytes
   nonlr-proj:      14333. kBytes
   fftplans  :       4330. kBytes
   grid      :      18659. kBytes
   one-center:        590. kBytes
   wavefun   :      55601. kBytes
 
     INWAV:  cpu time    0.0000: real time    0.0000
 initial charge density was supplied:
 number of electron     401.0000006 magnetization 
 keeping initial charge density in first step


--------------------------------------------------------------------------------------------------------


 Maximum index for non-local projection operator         3035
 Maximum index for augmentation-charges          850 (set IRDMAX)


--------------------------------------------------------------------------------------------------------


 First call to EWALD:  gamma=   0.155
 Maximum number of real-space cells 4x 4x 2
 Maximum number of reciprocal cells 2x 2x 5

    FEWALD:  cpu time    0.0013: real time    0.0014


--------------------------------------- Iteration      1(   1)  ---------------------------------------


    POTLOK:  cpu time    0.0458: real time    0.0461
    SETDIJ:  cpu time    0.0051: real time    0.0052
     EDDAV:  cpu time    7.1489: real time    7.1503
 BZINTS: Fermi energy:   11.538325;  401.000000 electrons
         Band energy: 0.151713E+04;  BLOECHL correction:   -0.005401
       DOS:  cpu time    0.0107: real time    0.0108
    --------------------------------------------
      LOOP:  cpu time    7.2105: real time    7.2124

 eigenvalue-minimisations  :  5040
 total energy-change (2. order) : 0.2653652E+04  (-0.1827203E+05)
 number of electron     401.0000006 magnetization 
 augmentation part      401.0000006 magnetization 

 Free energy of the ion-electron system (eV)
  ---------------------------------------------------
  alpha Z        PSCENC =      1039.67590227
  Ewald energy   TEWEN  =     92969.51334370
  -Hartree energ DENC   =   -127363.38601498
  -exchange      EXHF   =         0.00000000
  -V(xc)+E(xc)   XCENC  =       511.04720870
  PAW double counting   =     36678.57924876   -35895.90941150
  entropy T*S    EENTRO =         0.00000000
  eigenvalues    EBANDS =      1517.13206629
  atomic energy  EATOM  =     33196.99969063
  Solvation  Ediel_sol  =         0.00000000
  ---------------------------------------------------
  free energy    TOTEN  =      2653.65203387 eV

  energy without entropy =     2653.65203387  energy(sigma->0) =     2653.65203387


--------------------------------------------------------------------------------------------------------




--------------------------------------- Iteration      1(   2)  ---------------------------------------


     EDDAV:  cpu time    7.8208: real time    7.8209
 BZINTS: Fermi energy:    1.509642;  401.000000 electrons
         Band energy:-0.113360E+04;  BLOECHL correction:   -0.036732
       DOS:  cpu time    0.0101: real time    0.0101
    --------------------------------------------
      LOOP:  cpu time    7.8309: real time    7.8311

 eigenvalue-minimisations  :  5656
 total energy-change (2. order) :-0.2650732E+04  (-0.2471181E+04)
 number of electron     401.0000006 magnetization 
 augmentation part      401.0000006 magnetization 

 Free energy of the ion-electron system (eV)
  ---------------------------------------------------
  alpha Z        PSCENC =      1039.67590227
  Ewald energy   TEWEN  =     92969.51334370
  -Hartree energ DENC   =   -127363.38601498
  -exchange      EXHF   =         0.00000000
  -V(xc)+E(xc)   XCENC  =       511.04720870
  PAW double counting   =     36678.57924876   -35895.90941150
  entropy T*S    EENTRO =         0.00000000
  eigenvalues    EBANDS =     -1133.60003970
  atomic energy  EATOM  =     33196.99969063
  Solvation  Ediel_sol  =         0.00000000
  ---------------------------------------------------
  free energy    TOTEN  =         2.91992787 eV

  energy without entropy =        2.91992787  energy(sigma->0) =        2.91992787


--------------------------------------------------------------------------------------------------------




--------------------------------------- Iteration      1(   3)  ---------------------------------------


     EDDAV:  cpu time    8.0923: real time    8.0926
 BZINTS: Fermi energy:    0.738197;  401.000000 electrons
         Band energy:-0.126750E+04;  BLOECHL correction:   -0.041831
       DOS:  cpu time    0.0102: real time    0.0102
    --------------------------------------------
      LOOP:  cpu time    8.1025: real time    8.1027

 eigenvalue-minimisations  :  5880
 total energy-change (2. order) :-0.1338996E+03  (-0.1298249E+03)
 number of electron     401.0000006 magnetization 
 augmentation part      401.0000006 magnetization 

 Free energy of the ion-electron system (eV)
  ---------------------------------------------------
  alpha Z        PSCENC =      1039.67590227
  Ewald energy   TEWEN  =     92969.51334370
  -Hartree energ DENC   =   -127363.38601498
  -exchange      EXHF   =         0.00000000
  -V(xc)+E(xc)   XCENC  =       511.04720870
  PAW double counting   =     36678.57924876   -35895.90941150
  entropy T*S    EENTRO =         0.00000000
  eigenvalues    EBANDS =     -1267.49960468
  atomic energy  EATOM  =     33196.99969063
  Solvation  Ediel_sol  =         0.00000000
  ---------------------------------------------------
  free energy    TOTEN  =      -130.97963710 eV

  energy without entropy =     -130.97963710  energy(sigma->0) =     -130.97963710


--------------------------------------------------------------------------------------------------------




--------------------------------------- Iteration      1(   4)  ---------------------------------------


     EDDAV:  cpu time    7.9989: real time    7.9990
 BZINTS: Fermi energy:    0.721903;  401.000000 electrons
         Band energy:-0.127039E+04;  BLOECHL correction:   -0.042952
       DOS:  cpu time    0.0100: real time    0.0100
    --------------------------------------------
      LOOP:  cpu time    8.0090: real time    8.0091

 eigenvalue-minimisations  :  5796
 total energy-change (2. order) :-0.2887746E+01  (-0.2873397E+01)
 number of electron     401.0000006 magnetization 
 augmentation part      401.0000006 magnetization 

 Free energy of the ion-electron system (eV)
  ---------------------------------------------------
  alpha Z        PSCENC =      1039.67590227
  Ewald energy   TEWEN  =     92969.51334370
  -Hartree energ DENC   =   -127363.38601498
  -exchange      EXHF   =         0.00000000
  -V(xc)+E(xc)   XCENC  =       511.04720870
  PAW double counting   =     36678.57924876   -35895.90941150
  entropy T*S    EENTRO =         0.00000000
  eigenvalues    EBANDS =     -1270.38735040
  atomic energy  EATOM  =     33196.99969063
  Solvation  Ediel_sol  =         0.00000000
  ---------------------------------------------------
  free energy    TOTEN  =      -133.86738282 eV

  energy without entropy =     -133.86738282  energy(sigma->0) =     -133.86738282


--------------------------------------------------------------------------------------------------------




--------------------------------------- Iteration      1(   5)  ---------------------------------------


     EDDAV:  cpu time    8.3060: real time    8.3062
 BZINTS: Fermi energy:    0.721708;  401.000000 electrons
         Band energy:-0.127048E+04;  BLOECHL correction:   -0.042925
       DOS:  cpu time    0.0098: real time    0.0098
    --------------------------------------------
      LOOP:  cpu time    8.3159: real time    8.3160

 eigenvalue-minimisations  :  6076
 total energy-change (2. order) :-0.9006642E-01  (-0.9006248E-01)
 number of electron     401.0000006 magnetization 
 augmentation part      401.0000006 magnetization 

 Free energy of the ion-electron system (eV)
  ---------------------------------------------------
  alpha Z        PSCENC =      1039.67590227
  Ewald energy   TEWEN  =     92969.51334370
  -Hartree energ DENC   =   -127363.38601498
  -exchange      EXHF   =         0.00000000
  -V(xc)+E(xc)   XCENC  =       511.04720870
  PAW double counting   =     36678.57924876   -35895.90941150
  entropy T*S    EENTRO =         0.00000000
  eigenvalues    EBANDS =     -1270.47741682
  atomic energy  EATOM  =     33196.99969063
  Solvation  Ediel_sol  =         0.00000000
  ---------------------------------------------------
  free energy    TOTEN  =      -133.95744925 eV

  energy without entropy =     -133.95744925  energy(sigma->0) =     -133.95744925


--------------------------------------------------------------------------------------------------------




--------------------------------------- Iteration      1(   6)  ---------------------------------------


    EDDIAG:  cpu time    1.3977: real time    1.3981
  RMM-DIIS:  cpu time    4.0829: real time    4.0830
    ORTHCH:  cpu time    0.2609: real time    0.2609
 BZINTS: Fermi energy:    0.721708;  401.000000 electrons
         Band energy:-0.127048E+04;  BLOECHL correction:   -0.042925
       DOS:  cpu time    0.0100: real time    0.0100
    --------------------------------------------
      LOOP:  cpu time    5.7516: real time    5.7520

 eigenvalue-minimisations  :  5186
 total energy-change (2. order) :-0.1914150E-02  (-0.1914163E-02)
 number of electron     401.0000006 magnetization 
 augmentation part      401.0000006 magnetization 

 Free energy of the ion-electron system (eV)
  ---------------------------------------------------
  alpha Z        PSCENC =      1039.67590227
  Ewald energy   TEWEN  =     92969.51334370
  -Hartree energ DENC   =   -127363.38601498
  -exchange      EXHF   =         0.00000000
  -V(xc)+E(xc)   XCENC  =       511.04720870
  PAW double counting   =     36678.57924876   -35895.90941150
  entropy T*S    EENTRO =         0.00000000
  eigenvalues    EBANDS =     -1270.47933097
  atomic energy  EATOM  =     33196.99969063
  Solvation  Ediel_sol  =         0.00000000
  ---------------------------------------------------
  free energy    TOTEN  =      -133.95936340 eV

  energy without entropy =     -133.95936340  energy(sigma->0) =     -133.95936340


--------------------------------------------------------------------------------------------------------




--------------------------------------- Iteration      1(   7)  ---------------------------------------


    EDDIAG:  cpu time    1.3989: real time    1.3990
  RMM-DIIS:  cpu time    5.4644: real time    5.4645
    ORTHCH:  cpu time    0.2604: real time    0.2604
 BZINTS: Fermi energy:    0.721707;  401.000000 electrons
         Band energy:-0.127048E+04;  BLOECHL correction:   -0.042925
       DOS:  cpu time    0.0092: real time    0.0092
    --------------------------------------------
      LOOP:  cpu time    7.1330: real time    7.1331

 eigenvalue-minimisations  :  7162
 total energy-change (2. order) :-0.6160891E-03  (-0.6143198E-03)
 number of electron     401.0000006 magnetization 
 augmentation part      401.0000006 magnetization 

 Free energy of the ion-electron system (eV)
  ---------------------------------------------------
  alpha Z        PSCENC =      1039.67590227
  Ewald energy   TEWEN  =     92969.51334370
  -Hartree energ DENC   =   -127363.38601498
  -exchange      EXHF   =         0.00000000
  -V(xc)+E(xc)   XCENC  =       511.04720870
  PAW double counting   =     36678.57924876   -35895.90941150
  entropy T*S    EENTRO =         0.00000000
  eigenvalues    EBANDS =     -1270.47994706
  atomic energy  EATOM  =     33196.99969063
  Solvation  Ediel_sol  =         0.00000000
  ---------------------------------------------------
  free energy    TOTEN  =      -133.95997949 eV

  energy without entropy =     -133.95997949  energy(sigma->0) =     -133.95997949


--------------------------------------------------------------------------------------------------------




--------------------------------------- Iteration      1(   8)  ---------------------------------------


    EDDIAG:  cpu time    1.3998: real time    1.4026
  RMM-DIIS:  cpu time    4.3968: real time    4.3968
    ORTHCH:  cpu time    0.2602: real time    0.2602
 BZINTS: Fermi energy:    0.721707;  401.000000 electrons
         Band energy:-0.127048E+04;  BLOECHL correction:   -0.042925
       DOS:  cpu time    0.0098: real time    0.0098
    --------------------------------------------
      LOOP:  cpu time    6.0665: real time    6.0694

 eigenvalue-minimisations  :  5677
 total energy-change (2. order) :-0.2892646E-04  (-0.2888690E-04)
 number of electron     401.0000006 magnetization 
 augmentation part      401.0000006 magnetization 

 Free energy of the ion-electron system (eV)
  ---------------------------------------------------
  alpha Z        PSCENC =      1039.67590227
  Ewald energy   TEWEN  =     92969.51334370
  -Hartree energ DENC   =   -127363.38601498
  -exchange      EXHF   =         0.00000000
  -V(xc)+E(xc)   XCENC  =       511.04720870
  PAW double counting   =     36678.57924876   -35895.90941150
  entropy T*S    EENTRO =         0.00000000
  eigenvalues    EBANDS =     -1270.47997599
  atomic energy  EATOM  =     33196.99969063
  Solvation  Ediel_sol  =         0.00000000
  ---------------------------------------------------
  free energy    TOTEN  =      -133.96000841 eV

  energy without entropy =     -133.96000841  energy(sigma->0) =     -133.96000841


--------------------------------------------------------------------------------------------------------




--------------------------------------- Iteration      1(   9)  ---------------------------------------


    EDDIAG:  cpu time    1.3988: real time    1.3990
  RMM-DIIS:  cpu time    3.3510: real time    3.3510
    ORTHCH:  cpu time    0.2606: real time    0.2606
 BZINTS: Fermi energy:    0.721707;  401.000000 electrons
         Band energy:-0.127048E+04;  BLOECHL correction:   -0.042925
       DOS:  cpu time    0.0096: real time    0.0095
    --------------------------------------------
      LOOP:  cpu time    5.0200: real time    5.0202

 eigenvalue-minimisations  :  3806
 total energy-change (2. order) :-0.3938578E-05  (-0.3931755E-05)
 number of electron     401.0000006 magnetization 
 augmentation part      401.0000006 magnetization 

 Free energy of the ion-electron system (eV)
  ---------------------------------------------------
  alpha Z        PSCENC =      1039.67590227
  Ewald energy   TEWEN  =     92969.51334370
  -Hartree energ DENC   =   -127363.38601498
  -exchange      EXHF   =         0.00000000
  -V(xc)+E(xc)   XCENC  =       511.04720870
  PAW double counting   =     36678.57924876   -35895.90941150
  entropy T*S    EENTRO =         0.00000000
  eigenvalues    EBANDS =     -1270.47997993
  atomic energy  EATOM  =     33196.99969063
  Solvation  Ediel_sol  =         0.00000000
  ---------------------------------------------------
  free energy    TOTEN  =      -133.96001235 eV

  energy without entropy =     -133.96001235  energy(sigma->0) =     -133.96001235


--------------------------------------------------------------------------------------------------------




 average (electrostatic) potential at core
  the test charge radii are     1.2098  1.1823  0.6991  0.7215
  (the norm of the test charge is              1.0000)
       1 -72.3305       2 -72.3030       3 -72.3029       4 -72.3030       5 -72.3026
       6 -72.3027       7 -72.3029       8 -72.3027       9 -72.3088      10 -72.6651
      11 -72.6060      12 -72.6649      13 -72.6060      14 -72.6056      15 -72.6341
      16 -72.6649      17 -72.6341      18 -72.6343      19 -72.5905      20 -72.9121
      21 -72.9119      22 -72.6018      23 -72.9119      24 -72.6015      25 -72.5907
      26 -72.5905      27 -72.6018      28 -72.2839      29 -72.4411      30 -72.4411
      31 -72.4411      32 -72.4409      33 -72.4411      34 -72.4409      35 -72.2825
      36 -45.4276      37 -55.7087      38 -76.3779
 
 
 
 E-fermi :   0.7217     XC(G=0):  -6.2348     alpha+bet : -5.8384

 Fermi energy:         0.7217073161

 k-point     1 :       0.0000    0.0000    0.0000
  band No.  band energies     occupation 
      1     -22.1479      2.00000
      2      -8.3547      2.00000
      3      -7.9662      2.00000
      4      -6.9403      2.00000
      5      -6.1119      2.00000
      6      -5.9978      2.00000
      7      -5.9917      2.00000
      8      -5.9917      2.00000
      9      -5.9528      2.00000
     10      -5.9026      2.00000
     11      -5.8921      2.00000
     12      -5.8921      2.00000
     13      -5.6299      2.00000
     14      -5.5024      2.00000
     15      -5.5024      2.00000
     16      -5.4865      2.00000
     17      -5.4131      2.00000
     18      -5.4131      2.00000
     19      -5.2939      2.00000
     20      -5.2366      2.00000
     21      -5.2365      2.00000
     22      -5.1347      2.00000
     23      -5.1280      2.00000
     24      -5.1279      2.00000
     25      -5.0637      2.00000
     26      -5.0582      2.00000
     27      -5.0582      2.00000
     28      -4.9190      2.00000
     29      -4.9189      2.00000
     30      -4.9011      2.00000
     31      -4.8701      2.00000
     32      -4.8700      2.00000
     33      -4.7974      2.00000
     34      -4.7824      2.00000
     35      -4.7824      2.00000
     36      -4.7672      2.00000
     37      -4.7318      2.00000
     38      -4.7318      2.00000
     39      -4.7177      2.00000
     40      -4.7087      2.00000
     41      -4.7087      2.00000
     42      -4.6929      2.00000
     43      -4.6788      2.00000
     44      -4.6788      2.00000
     45      -4.6710      2.00000
     46      -4.2428      2.00000
     47      -4.2427      2.00000
     48      -4.2261      2.00000
     49      -4.2261      2.00000
     50      -4.2057      2.00000
     51      -4.1657      2.00000
     52      -4.1657      2.00000
     53      -4.1477      2.00000
     54      -4.1278      2.00000
     55      -4.1277      2.00000
     56      -4.0569      2.00000
     57      -4.0540      2.00000
     58      -4.0072      2.00000
     59      -3.9592      2.00000
     60      -3.7056      2.00000
     61      -3.6885      2.00000
     62      -3.6885      2.00000
     63      -3.6667      2.00000
     64      -3.6609      2.00000
     65      -3.6609      2.00000
     66      -3.6488      2.00000
     67      -3.5835      2.00000
     68      -3.5835      2.00000
     69      -3.5309      2.00000
     70      -3.5308      2.00000
     71      -3.5101      2.00000
     72      -3.4854      2.00000
     73      -3.4854      2.00000
     74      -3.4649      2.00000
     75      -3.4649      2.00000
     76      -3.4529      2.00000
     77      -3.3943      2.00000
     78      -3.3904      2.00000
     79      -3.3904      2.00000
     80      -3.3794      2.00000
     81      -3.3794      2.00000
     82      -3.3703      2.00000
     83      -3.3703      2.00000
     84      -3.3697      2.00000
     85      -3.3139      2.00000
     86      -3.3139      2.00000
     87      -3.3007      2.00000
     88      -3.2949      2.00000
     89      -3.2949      2.00000
     90      -3.2433      2.00000
     91      -3.2139      2.00000
     92      -3.2139      2.00000
     93      -3.1753      2.00000
     94      -3.1753      2.00000
     95      -3.1725      2.00000
     96      -3.1350      2.00000
     97      -3.1350      2.00000
     98      -3.1247      2.00000
     99      -3.1247      2.00000
    100      -2.9494      2.00000
    101      -2.9494      2.00000
    102      -2.9450      2.00000
    103      -2.9450      2.00000
    104      -2.8160      2.00000
    105      -2.7943      2.00000
    106      -2.7942      2.00000
    107      -2.7645      2.00000
    108      -2.7645      2.00000
    109      -2.7578      2.00000
    110      -2.6676      2.00000
    111      -2.6676      2.00000
    112      -2.6124      2.00000
    113      -2.5806      2.00000
    114      -2.5806      2.00000
    115      -2.5402      2.00000
    116      -2.5402      2.00000
    117      -2.5241      2.00000
    118      -2.4906      2.00000
    119      -2.4654      2.00000
    120      -2.4449      2.00000
    121      -2.3478      2.00000
    122      -2.3478      2.00000
    123      -2.3182      2.00000
    124      -2.2770      2.00000
    125      -2.2770      2.00000
    126      -2.2515      2.00000
    127      -2.2475      2.00000
    128      -2.2475      2.00000
    129      -2.2085      2.00000
    130      -2.2084      2.00000
    131      -2.1795      2.00000
    132      -2.1795      2.00000
    133      -2.0811      2.00000
    134      -2.0811      2.00000
    135      -2.0613      2.00000
    136      -2.0297      2.00000
    137      -2.0297      2.00000
    138      -2.0238      2.00000
    139      -2.0089      2.00000
    140      -2.0037      2.00000
    141      -2.0037      2.00000
    142      -2.0002      2.00000
    143      -2.0001      2.00000
    144      -1.8830      2.00000
    145      -1.8830      2.00000
    146      -1.8615      2.00000
    147      -1.8201      2.00000
    148      -1.8201      2.00000
    149      -1.8030      2.00000
    150      -1.8029      2.00000
    151      -1.7999      2.00000
    152      -1.7896      2.00000
    153      -1.7488      2.00000
    154      -1.7488      2.00000
    155      -1.7289      2.00000
    156      -1.7261      2.00000
    157      -1.6774      2.00000
    158      -1.6774      2.00000
    159      -1.6591      2.00000
    160      -1.6499      2.00000
    161      -1.6499      2.00000
    162      -1.6149      2.00000
    163      -1.5988      2.00000
    164      -1.5840      2.00000
    165      -1.5840      2.00000
    166      -1.5416      2.00000
    167      -1.5416      2.00000
    168      -1.5260      2.00000
    169      -1.5157      2.00000
    170      -1.5143      2.00000
    171      -1.5143      2.00000
    172      -1.5061      2.00000
    173      -1.5061      2.00000
    174      -1.4878      2.00000
    175      -1.4529      2.00000
    176      -1.4529      2.00000
    177      -1.4336      2.00000
    178      -1.4296      2.00000
    179      -1.4202      2.00000
    180      -1.4202      2.00000
    181      -1.4132      2.00000
    182      -1.3866      2.00000
    183      -1.3866      2.00000
    184      -1.3464      2.00000
    185      -1.3398      2.00000
    186      -1.3394      2.00000
    187      -1.3394      2.00000
    188      -1.2843      2.00000
    189      -1.2842      2.00000
    190      -1.1815      2.00000
    191      -1.1815      2.00000
    192      -1.1757      2.00000
    193      -1.1415      2.00000
    194      -1.1415      2.00000
    195      -1.1292      2.00000
    196      -0.3274      2.00000
    197      -0.2057      2.00000
    198      -0.2056      2.00000
    199      -0.0987      2.00000
    200       0.0868      2.00000
    201       0.0868      2.00000
    202       0.1392      2.00000
    203       0.6786      2.00000
    204       0.6786      1.65617
    205       1.0833      0.00000
    206       1.0833      0.00000
    207       1.0867      0.00000
    208       1.8833      0.00000
    209       2.2108      0.00000
    210       2.2701      0.00000
    211       2.2701      0.00000
    212       2.6713      0.00000
    213       2.6713      0.00000
    214       3.3846      0.00000
    215       3.3846      0.00000
    216       3.5099      0.00000
    217       3.5490      0.00000
    218       3.5490      0.00000
    219       3.6933      0.00000
    220       4.0693      0.00000
    221       4.2928      0.00000
    222       4.5674      0.00000
    223       4.5675      0.00000
    224       4.9612      0.00000
    225       5.3419      0.00000
    226       5.3704      0.00000
    227       5.3704      0.00000
    228       5.3716      0.00000
    229       5.4237      0.00000
    230       5.4237      0.00000
    231       5.6809      0.00000
    232       5.6809      0.00000
    233       5.8051      0.00000
    234       5.8615      0.00000
    235       5.8616      0.00000
    236       5.8661      0.00000
    237       6.1228      0.00000
    238       6.9543      0.00000
    239       7.0221      0.00000
    240       7.0422      0.00000
    241       7.0455      0.00000
    242       7.1141      0.00000
    243       7.1167      0.00000
    244       7.1302      0.00000
    245       7.1769      0.00000
    246       7.2202      0.00000
    247       7.2270      0.00000
    248       7.2858      0.00000
    249       7.3204      0.00000
    250       7.3625      0.00000
    251       7.5218      0.00000
[...]
  0.000   0.000   0.000   0.000   0.000   0.000   0.000   0.000   0.000   0.000   0.000   0.000   0.000   0.000   0.000   0.000
  0.000   0.000   0.000   0.000   0.000   0.000   0.000   0.000   0.000   0.000   0.000   0.000   0.000   0.000   0.000   0.000
  0.000   0.000   0.000   0.000   0.000   0.000   0.000   0.000   0.000   0.000   1.000   0.000   0.000   0.000   0.000   0.000
  0.000   0.000   0.000   0.000   0.000   0.000   0.000   0.000   0.000   0.000   0.000   0.000   0.000   0.000   0.000   0.000
  0.000   0.000   0.000   0.000   0.000   0.000   0.000   0.000   0.000   0.000   0.000   0.000   0.000   0.000   0.000   0.000
  0.000   0.000   0.000   0.000   0.000   0.000   0.000   0.000   0.000   0.000   0.000   0.000   0.000   0.000   0.000   0.000
  0.000   0.000   0.000   0.000   0.000   0.000   0.000   0.000   0.000   0.000   0.000   0.000   0.000   0.000   0.000   0.000
  0.000   0.000   0.000   0.000   0.000   0.000   0.000   0.000   0.000   0.000   0.000   0.000   0.000   0.000   0.000   0.000
  0.000   0.000   0.000   0.000   0.000   0.000   0.000   0.000   0.000   0.000   0.000   0.000   0.000   0.000   0.000   0.000
  0.000   0.000   0.000   0.000   0.000   0.000   0.000   0.000   0.000   0.000   0.000   0.000   0.000   0.000   0.000   0.000


------------------------ aborting loop because EDIFF is reached ----------------------------------------





 total charge

# of ion       s       p       d       tot
------------------------------------------
    1        0.546   0.237   8.769   9.552
    2        0.543   0.240   8.765   9.548
    3        0.543   0.240   8.765   9.548
    4        0.543   0.240   8.765   9.548
    5        0.547   0.240   8.759   9.546
    6        0.543   0.240   8.765   9.548
    7        0.543   0.240   8.765   9.548
    8        0.543   0.240   8.765   9.548
    9        0.542   0.239   8.769   9.550
   10        0.526   0.307   8.765   9.598
   11        0.525   0.306   8.779   9.610
   12        0.526   0.307   8.765   9.598
   13        0.525   0.306   8.779   9.610
   14        0.525   0.306   8.779   9.610
   15        0.515   0.308   8.775   9.598
   16        0.526   0.307   8.765   9.598
   17        0.515   0.308   8.775   9.598
   18        0.515   0.308   8.775   9.598
   19        0.516   0.294   8.771   9.581
   20        0.573   0.344   8.733   9.649
   21        0.573   0.344   8.733   9.649
   22        0.505   0.306   8.779   9.590
   23        0.573   0.344   8.733   9.649
   24        0.505   0.306   8.779   9.590
   25        0.516   0.294   8.771   9.581
   26        0.516   0.294   8.771   9.581
   27        0.505   0.306   8.779   9.590
   28        0.537   0.224   8.760   9.521
   29        0.576   0.253   8.737   9.566
   30        0.576   0.253   8.737   9.566
   31        0.576   0.253   8.737   9.566
   32        0.576   0.253   8.737   9.566
   33        0.576   0.253   8.737   9.566
   34        0.576   0.253   8.737   9.566
   35        0.536   0.223   8.759   9.518
   36        0.585   0.577   4.025   5.187
   37        0.962   1.557   0.000   2.518
   38        1.613   3.530   0.000   5.143
--------------------------------------------------
tot         22.057  15.377 310.661 348.096
 
    CHARGE:  cpu time    0.3238: real time    0.3238
    FORLOC:  cpu time    0.0110: real time    0.0110
    FORNL :  cpu time    1.4503: real time    1.4505
    STRESS:  cpu time    4.3372: real time    4.3375
    FORCOR:  cpu time    0.0456: real time    0.0457
    FORHAR:  cpu time    0.0175: real time    0.0176
    OFIELD:  cpu time    0.0002: real time    0.0002

  FORCE on cell =-STRESS in cart. coord.  units (eV):
  Direction    XX          YY          ZZ          XY          YZ          ZX
  --------------------------------------------------------------------------------------
  Alpha Z  1039.67590  1039.67590  1039.67590
  Ewald  115334.82679115334.82722************    -0.00031    -0.00009    -0.00014
  Hartree124133.27268124133.27269************     0.00001    -0.00002    -0.00004
  E(xc)   -1797.84292 -1797.84299 -1805.80986     0.00006    -0.00000    -0.00001
  Local  ************************251374.37083     0.00203     0.00002     0.00001
  n-local  -105.09988   -57.38384   -59.30487    23.50615    -1.45465     1.54684
  augment  2373.52774  2373.52922  2395.28334    -0.00128     0.00002     0.00006
  Kinetic  5606.58496  5617.29088  5652.63113     6.33722    -0.06652     0.65827
  Fock        0.00000     0.00000     0.00000     0.00000     0.00000     0.00000
  -------------------------------------------------------------------------------------
  Total     -21.54291   -21.54291     3.81656    -0.00000    -0.00000     0.00000
  in kB     -23.11573   -23.11573     4.09521    -0.00000    -0.00000     0.00000
  external pressure =      -14.05 kB  Pullay stress =        0.00 kB


 VOLUME and BASIS-vectors are now :
 -----------------------------------------------------------------------------
  energy-cutoff  :      500.00
  volume of cell :     1493.16
      direct lattice vectors                 reciprocal lattice vectors
     8.813512802  0.000000000  0.000000000     0.113462137 -0.065507406  0.000000000
     4.406756909  7.632725690  0.000000000     0.000000000  0.131014796  0.000000000
     0.000000000  0.000000000 22.196203232     0.000000000  0.000000000  0.045052750

  length of vectors
     8.813512802  8.813512802 22.196203232     0.131014796  0.131014796  0.045052750


 FORCES acting on ions
    electron-ion (+dipol)            ewald-force                    non-local-force                 convergence-correction
 -----------------------------------------------------------------------------------------------
   -.195E-04 -.161E-04 0.247E+04   0.520E-04 0.434E-04 -.247E+04   -.170E-17 0.126E-17 -.963E+00   -.201E-03 -.130E-03 -.206E+00
   0.636E+00 -.156E-01 0.247E+04   -.778E+00 -.210E+00 -.247E+04   0.774E-01 0.143E+00 -.254E+00   0.645E-01 0.781E-01 -.224E+00
   -.636E+00 -.156E-01 0.247E+04   0.778E+00 -.210E+00 -.247E+04   -.774E-01 0.143E+00 -.254E+00   -.642E-01 0.801E-01 -.224E+00
   0.305E+00 0.559E+00 0.247E+04   -.571E+00 -.569E+00 -.247E+04   0.163E+00 -.448E-02 -.254E+00   0.100E+00 0.168E-01 -.224E+00
   0.889E-05 -.233E-04 0.247E+04   0.951E-04 0.175E-05 -.247E+04   0.471E-17 -.772E-19 0.715E-01   0.430E-02 0.262E-02 -.184E+00
   -.305E+00 0.559E+00 0.247E+04   0.570E+00 -.569E+00 -.247E+04   -.163E+00 -.448E-02 -.254E+00   -.102E+00 0.177E-01 -.223E+00
   -.332E+00 -.543E+00 0.247E+04   0.207E+00 0.778E+00 -.247E+04   0.852E-01 -.139E+00 -.254E+00   0.373E-01 -.957E-01 -.224E+00
   0.331E+00 -.543E+00 0.247E+04   -.207E+00 0.778E+00 -.247E+04   -.852E-01 -.139E+00 -.254E+00   -.354E-01 -.968E-01 -.223E+00
   0.196E-04 -.416E-04 0.247E+04   0.166E-03 -.200E-04 -.247E+04   0.515E-18 0.208E-19 -.611E+00   -.464E-02 -.240E-02 -.198E+00
   0.770E+01 0.444E+01 0.834E+03   -.730E+01 -.421E+01 -.833E+03   -.441E+00 -.255E+00 -.704E+00   0.165E-01 0.943E-02 -.415E-01
   0.145E-04 0.305E+01 0.840E+03   0.148E-03 -.317E+01 -.840E+03   0.559E-08 0.840E-01 -.137E+00   0.379E-02 -.133E-01 -.373E-01
   -.770E+01 0.444E+01 0.834E+03   0.730E+01 -.421E+01 -.833E+03   0.441E+00 -.255E+00 -.704E+00   -.178E-01 0.109E-01 -.418E-01
   0.264E+01 -.152E+01 0.840E+03   -.275E+01 0.159E+01 -.840E+03   0.728E-01 -.420E-01 -.137E+00   -.935E-02 0.102E-01 -.373E-01
   -.264E+01 -.152E+01 0.840E+03   0.275E+01 0.159E+01 -.840E+03   -.728E-01 -.420E-01 -.137E+00   0.172E-01 0.977E-02 -.374E-01
   0.313E-04 0.558E+01 0.839E+03   0.236E-03 -.572E+01 -.838E+03   0.259E-08 0.389E-01 -.542E+00   -.239E-02 0.180E-01 0.466E-02
   -.214E-04 -.889E+01 0.834E+03   0.163E-03 0.843E+01 -.833E+03   0.339E-07 0.509E+00 -.704E+00   0.297E-03 -.209E-01 -.418E-01
   0.483E+01 -.279E+01 0.839E+03   -.495E+01 0.286E+01 -.838E+03   0.337E-01 -.195E-01 -.542E+00   0.147E-01 -.107E-01 0.468E-02
   -.483E+01 -.279E+01 0.839E+03   0.495E+01 0.286E+01 -.838E+03   -.337E-01 -.195E-01 -.542E+00   -.147E-01 -.875E-02 0.441E-02
   -.435E-04 0.322E+01 -.835E+03   0.551E-04 -.336E+01 0.834E+03   0.160E-08 0.241E-01 0.602E+00   -.256E-03 0.985E-01 0.223E+00
   0.229E+01 0.132E+01 -.791E+03   -.118E+01 -.679E+00 0.792E+03   -.126E+01 -.725E+00 -.152E+01   0.131E-01 0.743E-02 0.266E+00
   -.229E+01 0.132E+01 -.791E+03   0.118E+01 -.679E+00 0.792E+03   0.126E+01 -.725E+00 -.152E+01   -.123E-01 0.948E-02 0.265E+00
   -.846E+01 0.489E+01 -.812E+03   0.795E+01 -.459E+01 0.811E+03   0.555E+00 -.320E+00 0.621E+00   -.105E-01 0.177E-02 0.204E+00
   -.103E-04 -.264E+01 -.791E+03   0.139E-03 0.136E+01 0.792E+03   0.965E-07 0.145E+01 -.152E+01   0.180E-02 -.154E-01 0.265E+00
   0.846E+01 0.489E+01 -.812E+03   -.795E+01 -.459E+01 0.811E+03   -.555E+00 -.320E+00 0.621E+00   0.362E-02 0.214E-02 0.204E+00
   -.279E+01 -.161E+01 -.835E+03   0.291E+01 0.168E+01 0.834E+03   -.208E-01 -.120E-01 0.602E+00   -.836E-01 -.483E-01 0.223E+00
   0.279E+01 -.161E+01 -.835E+03   -.291E+01 0.168E+01 0.834E+03   0.208E-01 -.120E-01 0.602E+00   0.855E-01 -.494E-01 0.224E+00
   0.113E-04 -.977E+01 -.812E+03   0.197E-03 0.918E+01 0.811E+03   0.426E-07 0.640E+00 0.621E+00   -.428E-02 -.100E-01 0.204E+00
   -.147E-04 -.132E-04 -.239E+04   0.308E-04 0.342E-04 0.239E+04   0.160E-17 -.168E-18 0.622E+00   0.129E-02 0.730E-03 0.292E+00
   0.323E+02 0.522E+02 -.238E+04   -.313E+02 -.506E+02 0.238E+04   -.118E+01 -.186E+01 0.223E-01   0.860E-01 0.597E-01 0.214E+00
   -.323E+02 0.522E+02 -.238E+04   0.313E+02 -.506E+02 0.238E+04   0.118E+01 -.186E+01 0.223E-01   -.921E-01 0.617E-01 0.215E+00
   0.614E+02 0.186E+01 -.238E+04   -.594E+02 -.180E+01 0.238E+04   -.220E+01 -.969E-01 0.223E-01   0.948E-01 0.446E-01 0.214E+00
   -.614E+02 0.186E+01 -.238E+04   0.594E+02 -.180E+01 0.238E+04   0.220E+01 -.969E-01 0.223E-01   -.102E+00 0.457E-01 0.214E+00
   0.291E+02 -.541E+02 -.238E+04   -.282E+02 0.524E+02 0.238E+04   -.102E+01 0.195E+01 0.223E-01   0.740E-02 -.111E+00 0.215E+00
   -.291E+02 -.541E+02 -.238E+04   0.282E+02 0.524E+02 0.238E+04   0.102E+01 0.195E+01 0.223E-01   -.115E-01 -.111E+00 0.214E+00
   0.353E-04 -.285E-04 -.239E+04   0.139E-03 -.500E-04 0.239E+04   0.255E-17 0.483E-17 0.656E+00   -.359E-02 -.178E-02 0.274E+00
   -.780E-05 0.137E-05 -.112E+04   0.638E-04 0.589E-05 0.112E+04   0.330E-17 0.577E-17 -.152E+01   0.133E-02 0.784E-03 0.146E+00
   -.441E-05 -.840E-04 -.797E+03   0.137E-04 0.902E-06 0.781E+03   -.134E-18 0.863E-18 0.161E+02   0.130E-02 0.788E-03 -.490E-01
   0.242E-03 -.916E-04 -.147E+04   0.470E-05 0.505E-06 0.153E+04   0.487E-18 0.205E-18 -.593E+02   0.377E-02 0.230E-02 -.192E-01
 -----------------------------------------------------------------------------------------------
   -.573E-03 -.951E-03 0.499E+02   -.330E-13 -.434E-13 -.136E-11   0.620E-17 -.432E-15 -.514E+02   -.122E-01 -.634E-02 0.186E+01
 
 
 POSITION                                       TOTAL-FORCE (eV/Angst)
 -----------------------------------------------------------------------------------
      0.00000      0.00000      5.28038        -0.000000      0.000000     -0.170140
      2.93784      0.00000      5.28038         0.000568     -0.002973     -0.072726
      5.87568      0.00000      5.28038        -0.000568     -0.002973     -0.072726
      1.46892      2.54424      5.28038        -0.002291      0.001979     -0.072726
      4.40676      2.54424      5.28038        -0.000000      0.000000     -0.127639
      7.34459      2.54424      5.28038         0.002291      0.001979     -0.072726
      2.93784      5.08848      5.28038        -0.002859      0.000994     -0.072726
      5.87568      5.08848      5.28038         0.002859      0.000994     -0.072726
      8.81351      5.08848      5.28038        -0.000000      0.000000     -0.093677
      1.46892      0.84808      7.67911        -0.021522     -0.012425      0.143836
      4.40676      0.84808      7.67911        -0.000000     -0.056059      0.014946
      7.34459      0.84808      7.67911         0.021522     -0.012425      0.143836
      2.93784      3.39232      7.67911        -0.048548      0.028029      0.014946
      5.87568      3.39232      7.67911         0.048548      0.028029      0.014946
      8.81351      3.39232      7.67911        -0.000000     -0.077119      0.101921
      4.40676      5.93656      7.67911         0.000000      0.024851      0.143836
      7.34459      5.93656      7.67911        -0.066787      0.038560      0.101921
     10.28243      5.93656      7.67911         0.066787      0.038560      0.101921
      8.81351      1.70807     10.10081        -0.000000     -0.017603      0.055203
      2.93151      1.69251     10.04012        -0.130563     -0.075381     -0.219153
      5.88200      1.69251     10.04012         0.130563     -0.075381     -0.219153
     10.26425      4.25090     10.06644         0.032427     -0.018722      0.028038
      4.40676      4.24770     10.04012         0.000000      0.150761     -0.219153
      7.36277      4.25090     10.06644        -0.032427     -0.018722      0.028038
     11.74104      6.77869     10.10081         0.015245      0.008802      0.055203
      5.88599      6.77869     10.10081        -0.015245      0.008802      0.055203
      8.81351      6.76365     10.06644         0.000000      0.037443      0.028038
      0.00000      0.00000     12.49922        -0.000000      0.000000     -0.076066
      2.99894      0.10048     12.55446        -0.083955     -0.162771     -0.101208
      5.81457      0.10048     12.55446         0.083955     -0.162771     -0.101208
      1.58649      2.54692     12.55446        -0.182942      0.008678     -0.101208
      7.22703      2.54692     12.55446         0.182942      0.008678     -0.101208
      2.99430      4.98533     12.55446        -0.098986      0.154093     -0.101208
      5.81921      4.98533     12.55446         0.098986      0.154093     -0.101208
      8.81351      5.08848     12.49869        -0.000000      0.000000     -0.021141
      4.40676      2.54424     12.18560        -0.000000     -0.000000      1.171968
      4.40676      2.54424     14.18022        -0.000000     -0.000000     -0.024339
      4.40676      2.54424     15.34894        -0.000000     -0.000000      0.010268
 -----------------------------------------------------------------------------------
    total drift:                               -0.012807     -0.007295      0.386352


--------------------------------------------------------------------------------------------------------



  FREE ENERGIE OF THE ION-ELECTRON SYSTEM (eV)
  ---------------------------------------------------
  free  energy   TOTEN  =      -133.96001235 eV

  energy  without entropy=     -133.96001235  energy(sigma->0) =     -133.96001235
 


--------------------------------------------------------------------------------------------------------


    POTLOK:  cpu time    0.0521: real time    0.0521


--------------------------------------------------------------------------------------------------------


 stress matrix after NEB project (eV)
    -21.54291     -0.00000      0.00000
     -0.00000    -21.54291      0.00000
     -0.00000     -0.00000      3.81656
  FORCES: max atom, RMS     0.024339    0.004285
  FORCE total and by dimension    0.026416    0.024339
  Stress total and by dimension   30.704400   21.542912
     LOOP+:  cpu time   69.7252: real time   69.7356
 -----------------------------------------------------------------------------
|                                                                             |
|           W    W    AA    RRRRR   N    N  II  N    N   GGGG   !!!           |
|           W    W   A  A   R    R  NN   N  II  NN   N  G    G  !!!           |
|           W    W  A    A  R    R  N N  N  II  N N  N  G       !!!           |
|           W WW W  AAAAAA  RRRRR   N  N N  II  N  N N  G  GGG   !            |
|           WW  WW  A    A  R   R   N   NN  II  N   NN  G    G                |
|           W    W  A    A  R    R  N    N  II  N    N   GGGG   !!!           |
|                                                                             |
|     Tetrahedron method does not include variations of the Fermi             |
|     occupations, so forces and stress will be inaccurate. We suggest        |
|     using a different smearing scheme ISMEAR = 1 or 2 for metals in         |
|     relaxations.                                                            |
|                                                                             |
 -----------------------------------------------------------------------------

    4ORBIT:  cpu time    0.0000: real time    0.0000



 total charge

# of ion       s       p       d       tot
------------------------------------------
    1        0.546   0.237   8.769   9.552
    2        0.543   0.240   8.765   9.548
    3        0.543   0.240   8.765   9.548
    4        0.543   0.240   8.765   9.548
    5        0.547   0.240   8.759   9.546
    6        0.543   0.240   8.765   9.548
    7        0.543   0.240   8.765   9.548
    8        0.543   0.240   8.765   9.548
    9        0.542   0.239   8.769   9.550
   10        0.526   0.307   8.765   9.598
   11        0.525   0.306   8.779   9.610
   12        0.526   0.307   8.765   9.598
   13        0.525   0.306   8.779   9.610
   14        0.525   0.306   8.779   9.610
   15        0.515   0.308   8.775   9.598
   16        0.526   0.307   8.765   9.598
   17        0.515   0.308   8.775   9.598
   18        0.515   0.308   8.775   9.598
   19        0.516   0.294   8.771   9.581
   20        0.573   0.344   8.733   9.649
   21        0.573   0.344   8.733   9.649
   22        0.505   0.306   8.779   9.590
   23        0.573   0.344   8.733   9.649
   24        0.505   0.306   8.779   9.590
   25        0.516   0.294   8.771   9.581
   26        0.516   0.294   8.771   9.581
   27        0.505   0.306   8.779   9.590
   28        0.537   0.224   8.760   9.521
   29        0.576   0.253   8.737   9.566
   30        0.576   0.253   8.737   9.566
   31        0.576   0.253   8.737   9.566
   32        0.576   0.253   8.737   9.566
   33        0.576   0.253   8.737   9.566
   34        0.576   0.253   8.737   9.566
   35        0.536   0.223   8.759   9.518
   36        0.585   0.577   4.025   5.187
   37        0.962   1.557   0.000   2.518
   38        1.613   3.530   0.000   5.143
--------------------------------------------------
tot         22.057  15.377 310.661 348.096
 
 BZINTS: Fermi energy:    0.721707;  401.000000 electrons
         Band energy:-0.127048E+04;  BLOECHL correction:   -0.042925

 total amount of memory used by VASP MPI-rank0   123513. kBytes
=======================================================================

   base      :      30000. kBytes
   nonlr-proj:      14333. kBytes
   fftplans  :       4330. kBytes
   grid      :      18659. kBytes
   one-center:        590. kBytes
   wavefun   :      55601. kBytes
 
  
  
 General timing and accounting informations for this job:
 ========================================================
  
                  Total CPU time used (sec):       77.070
                            User time (sec):       74.195
                          System time (sec):        2.875
                         Elapsed time (sec):       77.535
  
                   Maximum memory used (kb):      380952.
                   Average memory used (kb):          N/A
  
                          Minor page faults:        78322
                          Major page faults:            0
                 Voluntary context switches:         5379
