PROCAR new format
# of k-points:   10         # of bands:  252         # of ions:   38

 k-point     1 :    0.00000000 0.00000000 0.00000000     weight = 0.01562500

band     1 # energy  -22.14793453 # occ.  2.00000000
 
ion      s      p      d    tot
    1  0.000  0.000  0.000  0.000
    2  0.000  0.000  0.000  0.000
    3  0.000  0.000  0.000  0.000
    4  0.000  0.000  0.000  0.000
    5  0.000  0.000  0.000  0.000
    6  0.000  0.000  0.000  0.000
    7  0.000  0.000  0.000  0.000
    8  0.000  0.000  0.000  0.000
    9  0.000  0.000  0.000  0.000
   10  0.000  0.000  0.000  0.000
   11  0.000  0.000  0.000  0.000
   12  0.000  0.000  0.000  0.000
   13  0.000  0.000  0.000  0.000
   14  0.000  0.000  0.000  0.000
   15  0.000  0.000  0.000  0.000
   16  0.000  0.000  0.000  0.000
   17  0.000  0.000  0.000  0.000
   18  0.000  0.000  0.000  0.000
   19  0.000  0.000  0.000  0.000
   20  0.000  0.000  0.000  0.000
   21  0.000  0.000  0.000  0.000
   22  0.000  0.000  0.000  0.000
   23  0.000  0.000  0.000  0.000
   24  0.000  0.000  0.000  0.000
   25  0.000  0.000  0.000  0.000
   26  0.000  0.000  0.000  0.000
   27  0.000  0.000  0.000  0.000
   28  0.000  0.000  0.000  0.000
   29  0.000  0.000  0.000  0.000
   30  0.000  0.000  0.000  0.000
   31  0.000  0.000  0.000  0.000
   32  0.000  0.000  0.000  0.000
   33  0.000  0.000  0.000  0.000
   34  0.000  0.000  0.000  0.000
   35  0.000  0.000  0.000  0.000
   36  0.000  0.000  0.000  0.001
   37  0.158  0.114  0.000  0.273
   38  0.636  0.094  0.000  0.731
tot    0.795  0.209  0.000  1.004
 
band     2 # energy   -8.35473642 # occ.  2.00000000
 
ion      s      p      d    tot
    1  0.001  0.000  0.000  0.002
    2  0.001  0.000  0.000  0.001
    3  0.001  0.000  0.000  0.001
    4  0.001  0.000  0.000  0.001
    5  0.001  0.000  0.000  0.001
    6  0.001  0.000  0.000  0.001
    7  0.001  0.000  0.000  0.001
    8  0.001  0.000  0.000  0.001
    9  0.001  0.000  0.000  0.001
   10  0.007  0.000  0.000  0.007
   11  0.007  0.000  0.000  0.007
   12  0.007  0.000  0.000  0.007
   13  0.007  0.000  0.000  0.007
   14  0.007  0.000  0.000  0.007
   15  0.006  0.000  0.000  0.006
   16  0.007  0.000  0.000  0.007
   17  0.006  0.000  0.000  0.006
   18  0.006  0.000  0.000  0.006
   19  0.009  0.000  0.000  0.009
   20  0.019  0.000  0.002  0.022
   21  0.019  0.000  0.002  0.022
   22  0.009  0.000  0.000  0.009
   23  0.019  0.000  0.002  0.022
   24  0.009  0.000  0.000  0.009
   25  0.009  0.000  0.000  0.009
   26  0.009  0.000  0.000  0.009
   27  0.009  0.000  0.000  0.009
   28  0.003  0.000  0.000  0.003
   29  0.007  0.000  0.001  0.008
   30  0.007  0.000  0.001  0.008
   31  0.007  0.000  0.001  0.008
   32  0.007  0.000  0.001  0.008
   33  0.007  0.000  0.001  0.008
   34  0.007  0.000  0.001  0.008
   35  0.003  0.000  0.000  0.003
   36  0.087  0.009  0.041  0.137
   37  0.159  0.013  0.000  0.172
   38  0.066  0.073  0.000  0.139
tot    0.543  0.101  0.053  0.698
 
band     3 # energy   -7.96623144 # occ.  2.00000000
 
ion      s      p      d    tot
    1  0.006  0.000  0.000  0.006
    2  0.006  0.000  0.000  0.006
    3  0.006  0.000  0.000  0.006
    4  0.006  0.000  0.000  0.006
    5  0.006  0.000  0.000  0.006
    6  0.006  0.000  0.000  0.006
    7  0.006  0.000  0.000  0.006
    8  0.006  0.000  0.000  0.006
    9  0.006  0.000  0.000  0.006
   10  0.020  0.000  0.000  0.020
   11  0.021  0.000  0.000  0.021
   12  0.020  0.000  0.000  0.020
   13  0.021  0.000  0.000  0.021
   14  0.021  0.000  0.000  0.021
   15  0.021  0.000  0.000  0.021
   16  0.020  0.000  0.000  0.020
   17  0.021  0.000  0.000  0.021
   18  0.021  0.000  0.000  0.021
   19  0.013  0.000  0.000  0.013
   20  0.011  0.001  0.001  0.012
   21  0.011  0.001  0.001  0.012
   22  0.014  0.000  0.000  0.015
   23  0.011  0.001  0.001  0.012
   24  0.014  0.000  0.000  0.015
   25  0.013  0.000  0.000  0.013
   26  0.013  0.000  0.000  0.013
   27  0.014  0.000  0.000  0.015
   28  0.002  0.000  0.000  0.002
   29  0.000  0.000  0.001  0.002
   30  0.000  0.000  0.001  0.002
   31  0.000  0.000  0.001  0.002
   32  0.000  0.000  0.001  0.002
   33  0.000  0.000  0.001  0.002
   34  0.000  0.000  0.001  0.002
   35  0.002  0.000  0.000  0.002
   36  0.010  0.013  0.023  0.047
   37  0.106  0.003  0.000  0.109
   38  0.051  0.074  0.000  0.125
tot    0.520  0.101  0.032  0.654
 
band     4 # energy   -6.94025491 # occ.  2.00000000
 
ion      s      p      d    tot
    1  0.015  0.000  0.001  0.017
    2  0.015  0.000  0.001  0.017
    3  0.015  0.000  0.001  0.017
    4  0.015  0.000  0.001  0.017
    5  0.015  0.000  0.001  0.016
    6  0.015  0.000  0.001  0.017
    7  0.015  0.000  0.001  0.017
    8  0.015  0.000  0.001  0.017
    9  0.015  0.000  0.001  0.017
   10  0.010  0.001  0.002  0.014
   11  0.009  0.001  0.002  0.013
   12  0.010  0.001  0.002  0.014
   13  0.009  0.001  0.002  0.013
   14  0.009  0.001  0.002  0.013
   15  0.010  0.001  0.002  0.014
   16  0.010  0.001  0.002  0.014
   17  0.010  0.001  0.002  0.014
   18  0.010  0.001  0.002  0.014
   19  0.010  0.001  0.003  0.014
   20  0.015  0.001  0.002  0.019
   21  0.015  0.001  0.002  0.019
   22  0.011  0.001  0.003  0.015
   23  0.015  0.001  0.002  0.019
   24  0.011  0.001  0.003  0.015
   25  0.010  0.001  0.003  0.014
   26  0.010  0.001  0.003  0.014
   27  0.011  0.001  0.003  0.015
   28  0.012  0.000  0.001  0.013
   29  0.013  0.001  0.001  0.015
   30  0.013  0.001  0.001  0.015
   31  0.013  0.001  0.001  0.015
   32  0.013  0.001  0.001  0.015
   33  0.013  0.001  0.001  0.015
   34  0.013  0.001  0.001  0.015
   35  0.012  0.000  0.000  0.013
   36  0.017  0.003  0.003  0.023
   37  0.014  0.003  0.000  0.017
   38  0.014  0.041  0.000  0.055
tot    0.483  0.076  0.065  0.624
 
band     5 # energy   -6.11189840 # occ.  2.00000000
 
ion      s      p      d    tot
    1  0.011  0.000  0.000  0.011
    2  0.003  0.000  0.003  0.006
    3  0.003  0.000  0.003  0.006
    4  0.003  0.000  0.003  0.006
    5  0.004  0.000  0.002  0.006
    6  0.003  0.000  0.003  0.006
    7  0.003  0.000  0.003  0.006
    8  0.003  0.000  0.003  0.006
    9  0.000  0.001  0.003  0.004
   10  0.002  0.000  0.012  0.015
   11  0.001  0.001  0.005  0.008
   12  0.002  0.000  0.012  0.015
   13  0.001  0.001  0.005  0.008
   14  0.001  0.001  0.005  0.008
   15  0.012  0.002  0.002  0.016
   16  0.002  0.000  0.012  0.015
   17  0.012  0.002  0.002  0.016
   18  0.012  0.002  0.002  0.016
   19  0.007  0.000  0.015  0.022
   20  0.005  0.001  0.030  0.037
   21  0.005  0.001  0.030  0.037
   22  0.026  0.002  0.003  0.031
   23  0.005  0.001  0.030  0.037
   24  0.026  0.002  0.003  0.031
   25  0.007  0.000  0.015  0.022
   26  0.007  0.000  0.015  0.022
   27  0.026  0.002  0.003  0.031
   28  0.000  0.000  0.005  0.005
   29  0.003  0.001  0.008  0.012
   30  0.003  0.001  0.008  0.012
   31  0.003  0.001  0.008  0.012
   32  0.003  0.001  0.008  0.012
   33  0.003  0.001  0.008  0.012
   34  0.003  0.001  0.008  0.012
   35  0.001  0.001  0.004  0.006
   36  0.068  0.000  0.003  0.071
   37  0.002  0.036  0.000  0.038
   38  0.018  0.101  0.000  0.119
tot    0.304  0.166  0.286  0.756
 
band     6 # energy   -5.99776463 # occ.  2.00000000
 
ion      s      p      d    tot
    1  0.003  0.000  0.011  0.014
    2  0.009  0.000  0.008  0.018
    3  0.009  0.000  0.008  0.018
    4  0.009  0.000  0.008  0.018
    5  0.007  0.000  0.006  0.013
    6  0.009  0.000  0.008  0.018
    7  0.009  0.000  0.008  0.018
    8  0.009  0.000  0.008  0.018
    9  0.023  0.000  0.005  0.028
   10  0.009  0.001  0.007  0.017
   11  0.006  0.002  0.006  0.013
   12  0.009  0.001  0.007  0.017
   13  0.006  0.002  0.006  0.013
   14  0.005  0.002  0.006  0.013
   15  0.002  0.001  0.007  0.010
   16  0.009  0.001  0.007  0.017
   17  0.002  0.001  0.007  0.010
   18  0.002  0.001  0.007  0.010
   19  0.002  0.001  0.011  0.015
   20  0.017  0.002  0.016  0.035
   21  0.017  0.002  0.016  0.034
   22  0.001  0.001  0.006  0.009
   23  0.017  0.002  0.016  0.034
   24  0.001  0.001  0.006  0.009
   25  0.002  0.001  0.011  0.015
   26  0.002  0.001  0.011  0.015
   27  0.001  0.001  0.006  0.009
   28  0.013  0.000  0.006  0.019
   29  0.015  0.000  0.011  0.027
   30  0.015  0.000  0.011  0.027
   31  0.015  0.000  0.011  0.027
   32  0.015  0.000  0.011  0.027
   33  0.015  0.000  0.011  0.027
   34  0.015  0.000  0.011  0.027
   35  0.025  0.000  0.007  0.032
   36  0.002  0.003  0.018  0.023
   37  0.000  0.000  0.000  0.000
   38  0.000  0.001  0.000  0.001
tot    0.333  0.027  0.331  0.691
 
band     7 # energy   -5.99169325 # occ.  2.00000000
 
ion      s      p      d    tot
    1  0.000  0.000  0.008  0.008
    2  0.003  0.001  0.002  0.006
    3  0.000  0.000  0.003  0.003
    4  0.003  0.001  0.002  0.006
    5  0.000  0.001  0.006  0.006
    6  0.006  0.001  0.003  0.010
    7  0.001  0.000  0.003  0.004
    8  0.005  0.001  0.003  0.010
    9  0.000  0.000  0.001  0.001
   10  0.036  0.002  0.006  0.045
   11  0.010  0.003  0.021  0.034
   12  0.011  0.001  0.024  0.036
   13  0.014  0.003  0.020  0.036
   14  0.046  0.001  0.011  0.058
   15  0.000  0.002  0.006  0.009
   16  0.008  0.001  0.027  0.035
   17  0.000  0.002  0.007  0.009
   18  0.001  0.000  0.011  0.011
   19  0.002  0.003  0.005  0.011
   20  0.069  0.001  0.013  0.083
   21  0.020  0.002  0.030  0.052
   22  0.004  0.001  0.020  0.025
   23  0.015  0.002  0.032  0.049
   24  0.015  0.002  0.005  0.021
   25  0.011  0.000  0.013  0.024
   26  0.003  0.003  0.006  0.012
   27  0.003  0.001  0.021  0.025
   28  0.000  0.000  0.001  0.001
   29  0.007  0.001  0.005  0.013
   30  0.002  0.001  0.003  0.006
   31  0.007  0.001  0.005  0.013
   32  0.002  0.000  0.003  0.005
   33  0.002  0.000  0.003  0.005
   34  0.001  0.000  0.003  0.004
   35  0.000  0.000  0.004  0.004
   36  0.000  0.004  0.012  0.016
   37  0.000  0.000  0.000  0.000
   38  0.000  0.000  0.000  0.000
tot    0.306  0.044  0.346  0.696
 
band     8 # energy   -5.99169040 # occ.  2.00000000
 
ion      s      p      d    tot
    1  0.000  0.000  0.008  0.008
    2  0.003  0.001  0.003  0.007
    3  0.006  0.001  0.003  0.009
    4  0.003  0.001  0.003  0.007
    5  0.000  0.001  0.006  0.006
    6  0.000  0.000  0.002  0.003
    7  0.005  0.001  0.003  0.009
    8  0.001  0.000  0.002  0.003
    9  0.000  0.000  0.001  0.001
   10  0.000  0.000  0.032  0.032
   11  0.037  0.001  0.014  0.052
   12  0.026  0.002  0.013  0.041
   13  0.033  0.002  0.015  0.049
   14  0.000  0.004  0.023  0.027
   15  0.000  0.001  0.009  0.011
   16  0.029  0.002  0.011  0.042
   17  0.000  0.001  0.009  0.010
   18  0.000  0.003  0.005  0.008
   19  0.009  0.001  0.011  0.021
   20  0.000  0.002  0.037  0.039
   21  0.049  0.001  0.020  0.070
   22  0.010  0.001  0.011  0.023
   23  0.055  0.001  0.018  0.074
   24  0.000  0.001  0.026  0.026
   25  0.000  0.004  0.003  0.007
   26  0.008  0.001  0.010  0.019
   27  0.012  0.001  0.009  0.022
   28  0.000  0.000  0.001  0.001
   29  0.000  0.000  0.002  0.003
   30  0.005  0.001  0.004  0.010
   31  0.000  0.000  0.002  0.003
   32  0.005  0.001  0.004  0.010
   33  0.005  0.001  0.004  0.010
   34  0.005  0.001  0.004  0.011
   35  0.000  0.000  0.004  0.004
   36  0.000  0.004  0.012  0.015
   37  0.000  0.000  0.000  0.000
   38  0.000  0.000  0.000  0.000
tot    0.306  0.044  0.346  0.696
 
band     9 # energy   -5.95276229 # occ.  2.00000000
 
ion      s      p      d    tot
    1  0.018  0.000  0.011  0.029
    2  0.010  0.000  0.012  0.023
    3  0.010  0.000  0.012  0.023
    4  0.010  0.000  0.012  0.023
    5  0.006  0.000  0.014  0.020
    6  0.010  0.000  0.012  0.023
    7  0.010  0.000  0.012  0.023
    8  0.010  0.000  0.012  0.023
    9  0.009  0.000  0.011  0.020
   10  0.001  0.000  0.028  0.030
   11  0.012  0.000  0.021  0.032
   12  0.001  0.000  0.028  0.030
   13  0.012  0.000  0.021  0.032
   14  0.012  0.000  0.021  0.032
   15  0.008  0.000  0.022  0.030
   16  0.001  0.000  0.028  0.030
   17  0.008  0.000  0.022  0.030
   18  0.008  0.000  0.022  0.030
   19  0.009  0.000  0.012  0.021
   20  0.003  0.000  0.028  0.031
   21  0.003  0.000  0.028  0.031
   22  0.000  0.000  0.016  0.017
   23  0.003  0.000  0.028  0.031
   24  0.000  0.000  0.016  0.017
   25  0.009  0.000  0.012  0.021
   26  0.009  0.000  0.012  0.021
   27  0.000  0.000  0.016  0.017
   28  0.000  0.000  0.004  0.004
   29  0.003  0.000  0.005  0.008
   30  0.003  0.000  0.005  0.008
   31  0.003  0.000  0.005  0.008
   32  0.003  0.000  0.005  0.008
   33  0.003  0.000  0.005  0.008
   34  0.003  0.000  0.005  0.008
   35  0.006  0.000  0.002  0.008
   36  0.002  0.001  0.009  0.011
   37  0.000  0.000  0.000  0.000
   38  0.000  0.000  0.000  0.000
tot    0.223  0.005  0.532  0.760
 
band    10 # energy   -5.90258664 # occ.  2.00000000
 
ion      s      p      d    tot
    1  0.005  0.001  0.002  0.008
    2  0.000  0.001  0.007  0.008
    3  0.001  0.001  0.007  0.008
    4  0.000  0.001  0.007  0.008
    5  0.021  0.002  0.000  0.023
    6  0.001  0.001  0.007  0.008
    7  0.001  0.001  0.007  0.008
    8  0.001  0.001  0.007  0.008
    9  0.000  0.000  0.003  0.003
   10  0.024  0.003  0.002  0.028
   11  0.020  0.001  0.022  0.043
   12  0.023  0.003  0.001  0.028
   13  0.020  0.001  0.022  0.043
   14  0.020  0.001  0.022  0.043
   15  0.002  0.001  0.025  0.027
   16  0.023  0.003  0.001  0.028
   17  0.002  0.001  0.025  0.027
   18  0.002  0.001  0.025  0.027
   19  0.019  0.002  0.009  0.029
   20  0.009  0.003  0.016  0.027
   21  0.009  0.003  0.015  0.027
   22  0.007  0.000  0.026  0.034
   23  0.009  0.003  0.015  0.027
   24  0.007  0.000  0.026  0.034
   25  0.019  0.002  0.009  0.029
   26  0.019  0.002  0.009  0.029
   27  0.007  0.000  0.026  0.034
   28  0.015  0.001  0.000  0.016
   29  0.001  0.000  0.004  0.005
   30  0.001  0.000  0.004  0.005
   31  0.001  0.000  0.004  0.005
   32  0.001  0.000  0.004  0.005
   33  0.001  0.000  0.004  0.005
   34  0.001  0.000  0.004  0.005
   35  0.001  0.001  0.004  0.006
   36  0.000  0.000  0.000  0.001
   37  0.000  0.000  0.000  0.000
   38  0.000  0.001  0.000  0.001
tot    0.290  0.039  0.369  0.698
 
band    11 # energy   -5.89210113 # occ.  2.00000000
 
ion      s      p      d    tot
    1  0.000  0.001  0.003  0.004
    2  0.004  0.001  0.004  0.009
    3  0.008  0.001  0.004  0.013
    4  0.004  0.001  0.004  0.009
    5  0.000  0.000  0.005  0.005
    6  0.001  0.000  0.003  0.004
    7  0.008  0.001  0.004  0.013
    8  0.001  0.000  0.003  0.004
    9  0.000  0.001  0.011  0.012
   10  0.023  0.000  0.017  0.039
   11  0.003  0.001  0.021  0.025
   12  0.006  0.004  0.006  0.015
   13  0.002  0.001  0.022  0.026
   14  0.010  0.001  0.007  0.019
   15  0.016  0.001  0.032  0.050
   16  0.006  0.003  0.006  0.016
   17  0.015  0.001  0.033  0.049
   18  0.063  0.002  0.006  0.071
   19  0.010  0.001  0.027  0.037
   20  0.000  0.001  0.015  0.016
   21  0.000  0.002  0.012  0.014
   22  0.009  0.003  0.016  0.028
   23  0.000  0.002  0.012  0.014
   24  0.037  0.001  0.011  0.049
   25  0.038  0.002  0.003  0.043
   26  0.009  0.001  0.028  0.037
   27  0.009  0.003  0.016  0.028
   28  0.000  0.000  0.006  0.006
   29  0.000  0.000  0.002  0.002
   30  0.002  0.000  0.002  0.004
   31  0.000  0.000  0.002  0.002
   32  0.004  0.001  0.003  0.008
   33  0.002  0.000  0.002  0.004
   34  0.004  0.001  0.003  0.008
   35  0.000  0.001  0.004  0.005
   36  0.000  0.000  0.001  0.001
   37  0.000  0.001  0.000  0.001
   38  0.000  0.001  0.000  0.001
tot    0.296  0.042  0.355  0.693
 
band    12 # energy   -5.89207640 # occ.  2.00000000
 
ion      s      p      d    tot
    1  0.000  0.001  0.003  0.004
    2  0.005  0.001  0.003  0.009
    3  0.001  0.000  0.004  0.005
    4  0.004  0.001  0.003  0.009
    5  0.000  0.000  0.005  0.005
    6  0.008  0.001  0.004  0.013
    7  0.000  0.000  0.004  0.004
    8  0.008  0.001  0.004  0.014
    9  0.000  0.001  0.011  0.012
   10  0.000  0.005  0.003  0.007
   11  0.008  0.001  0.012  0.021
   12  0.017  0.001  0.013  0.032
   13  0.008  0.001  0.012  0.021
   14  0.000  0.001  0.027  0.028
   15  0.047  0.001  0.015  0.064
   16  0.017  0.001  0.013  0.031
   17  0.048  0.001  0.015  0.064
   18  0.000  0.001  0.041  0.043
   19  0.028  0.002  0.011  0.041
   20  0.000  0.002  0.011  0.013
   21  0.000  0.001  0.014  0.015
   22  0.028  0.001  0.013  0.042
   23  0.000  0.001  0.014  0.015
   24  0.000  0.004  0.018  0.021
   25  0.000  0.000  0.035  0.036
   26  0.028  0.002  0.011  0.041
   27  0.027  0.001  0.013  0.041
   28  0.000  0.000  0.006  0.006
   29  0.004  0.001  0.002  0.007
   30  0.002  0.000  0.002  0.005
   31  0.004  0.001  0.002  0.007
   32  0.000  0.000  0.001  0.002
   33  0.003  0.000  0.002  0.005
   34  0.000  0.000  0.001  0.002
   35  0.000  0.001  0.004  0.005
   36  0.000  0.000  0.001  0.001
   37  0.000  0.001  0.000  0.001
   38  0.000  0.001  0.000  0.001
tot    0.296  0.042  0.355  0.693
 
band    13 # energy   -5.62985036 # occ.  2.00000000
 
ion      s      p      d    tot
    1  0.001  0.000  0.000  0.002
    2  0.000  0.001  0.005  0.006
    3  0.000  0.001  0.005  0.006
    4  0.000  0.001  0.005  0.006
    5  0.007  0.001  0.000  0.008
    6  0.000  0.001  0.005  0.006
    7  0.000  0.001  0.005  0.006
    8  0.000  0.001  0.005  0.006
    9  0.009  0.002  0.002  0.013
   10  0.003  0.000  0.028  0.030
   11  0.004  0.002  0.005  0.011
   12  0.003  0.000  0.028  0.030
   13  0.004  0.002  0.005  0.011
   14  0.004  0.002  0.005  0.011
   15  0.022  0.002  0.010  0.034
   16  0.003  0.000  0.028  0.030
   17  0.022  0.002  0.010  0.034
   18  0.022  0.002  0.010  0.034
   19  0.005  0.001  0.003  0.009
   20  0.000  0.002  0.023  0.026
   21  0.000  0.002  0.023  0.026
   22  0.002  0.001  0.014  0.018
   23  0.000  0.002  0.023  0.026
   24  0.002  0.001  0.014  0.018
   25  0.005  0.001  0.003  0.009
   26  0.005  0.001  0.003  0.009
   27  0.002  0.001  0.014  0.018
   28  0.013  0.000  0.001  0.015
   29  0.003  0.001  0.007  0.010
   30  0.003  0.001  0.007  0.010
   31  0.003  0.001  0.007  0.010
   32  0.003  0.001  0.007  0.010
   33  0.003  0.001  0.007  0.010
   34  0.003  0.001  0.007  0.010
   35  0.006  0.000  0.003  0.009
   36  0.030  0.001  0.042  0.073
   37  0.001  0.058  0.000  0.059
   38  0.011  0.097  0.000  0.108
tot    0.205  0.190  0.370  0.765
 
band    14 # energy   -5.50239081 # occ.  2.00000000
 
ion      s      p      d    tot
    1  0.000  0.001  0.004  0.005
    2  0.001  0.001  0.005  0.006
    3  0.009  0.001  0.004  0.015
    4  0.001  0.001  0.005  0.006
    5  0.000  0.001  0.010  0.011
    6  0.004  0.001  0.004  0.008
    7  0.009  0.001  0.004  0.015
    8  0.004  0.001  0.004  0.008
    9  0.000  0.000  0.008  0.008
   10  0.000  0.001  0.050  0.050
   11  0.018  0.001  0.020  0.038
   12  0.007  0.001  0.018  0.027
   13  0.018  0.001  0.019  0.038
   14  0.000  0.000  0.047  0.048
   15  0.002  0.000  0.019  0.021
   16  0.007  0.001  0.019  0.027
   17  0.002  0.000  0.019  0.021
   18  0.000  0.001  0.011  0.013
   19  0.003  0.000  0.017  0.021
   20  0.000  0.000  0.086  0.086
   21  0.014  0.001  0.026  0.042
   22  0.004  0.001  0.019  0.023
   23  0.014  0.001  0.026  0.042
   24  0.000  0.001  0.031  0.032
   25  0.000  0.001  0.010  0.010
   26  0.003  0.000  0.017  0.021
   27  0.004  0.001  0.019  0.023
   28  0.000  0.000  0.008  0.008
   29  0.004  0.001  0.006  0.011
   30  0.009  0.001  0.005  0.016
   31  0.004  0.001  0.006  0.011
   32  0.001  0.000  0.004  0.005
   33  0.009  0.001  0.005  0.016
   34  0.001  0.000  0.004  0.005
   35  0.000  0.000  0.002  0.003
   36  0.000  0.004  0.010  0.014
   37  0.000  0.000  0.000  0.000
   38  0.000  0.000  0.000  0.000
tot    0.152  0.032  0.568  0.752
 
band    15 # energy   -5.50235960 # occ.  2.00000000
 
ion      s      p      d    tot
    1  0.000  0.001  0.004  0.005
    2  0.008  0.001  0.004  0.013
    3  0.000  0.000  0.004  0.005
    4  0.008  0.001  0.004  0.013
    5  0.000  0.001  0.010  0.011
    6  0.005  0.001  0.005  0.011
    7  0.000  0.000  0.004  0.005
    8  0.005  0.001  0.005  0.011
    9  0.000  0.000  0.008  0.008
   10  0.009  0.002  0.008  0.019
   11  0.006  0.000  0.038  0.044
   12  0.002  0.001  0.039  0.043
   13  0.006  0.000  0.038  0.044
   14  0.024  0.001  0.010  0.035
   15  0.001  0.001  0.014  0.015
   16  0.002  0.001  0.039  0.043
   17  0.001  0.001  0.014  0.015
   18  0.002  0.000  0.021  0.024
   19  0.001  0.001  0.012  0.014
   20  0.019  0.001  0.006  0.027
   21  0.005  0.000  0.066  0.071
   22  0.001  0.001  0.027  0.029
   23  0.005  0.000  0.066  0.071
   24  0.005  0.001  0.014  0.020
   25  0.004  0.000  0.020  0.024
   26  0.001  0.001  0.012  0.014
   27  0.001  0.001  0.027  0.029
   28  0.000  0.000  0.008  0.008
   29  0.005  0.001  0.004  0.010
   30  0.000  0.000  0.004  0.005
   31  0.005  0.001  0.004  0.010
   32  0.009  0.001  0.006  0.016
   33  0.000  0.000  0.004  0.005
   34  0.009  0.001  0.006  0.016
   35  0.000  0.000  0.002  0.003
   36  0.000  0.004  0.010  0.014
   37  0.000  0.000  0.000  0.000
   38  0.000  0.000  0.000  0.000
tot    0.152  0.032  0.568  0.752
 
band    16 # energy   -5.48645705 # occ.  2.00000000
 
ion      s      p      d    tot
    1  0.016  0.002  0.002  0.020
    2  0.000  0.001  0.007  0.008
    3  0.000  0.001  0.007  0.008
    4  0.000  0.001  0.007  0.008
    5  0.000  0.000  0.002  0.002
    6  0.000  0.001  0.007  0.008
    7  0.000  0.001  0.007  0.008
    8  0.000  0.001  0.007  0.008
    9  0.013  0.001  0.000  0.014
   10  0.010  0.001  0.012  0.024
   11  0.004  0.000  0.042  0.046
   12  0.010  0.001  0.012  0.024
   13  0.004  0.000  0.042  0.046
   14  0.004  0.000  0.042  0.046
   15  0.002  0.001  0.023  0.027
   16  0.010  0.001  0.012  0.024
   17  0.002  0.001  0.023  0.027
   18  0.002  0.001  0.023  0.027
   19  0.004  0.001  0.009  0.014
   20  0.000  0.000  0.054  0.055
   21  0.000  0.000  0.054  0.055
   22  0.011  0.001  0.023  0.034
   23  0.000  0.000  0.054  0.055
   24  0.011  0.001  0.023  0.035
   25  0.004  0.001  0.009  0.014
   26  0.004  0.001  0.009  0.014
   27  0.011  0.001  0.023  0.034
   28  0.014  0.001  0.000  0.016
   29  0.000  0.000  0.007  0.008
   30  0.000  0.000  0.007  0.008
   31  0.000  0.000  0.007  0.008
   32  0.000  0.000  0.007  0.008
   33  0.000  0.000  0.007  0.008
   34  0.000  0.000  0.007  0.008
   35  0.004  0.001  0.004  0.008
   36  0.001  0.000  0.004  0.005
   37  0.000  0.001  0.000  0.001
   38  0.000  0.001  0.000  0.002
tot    0.143  0.028  0.588  0.760
 
band    17 # energy   -5.41311592 # occ.  2.00000000
 
ion      s      p      d    tot
    1  0.000  0.001  0.014  0.015
    2  0.009  0.001  0.004  0.014
    3  0.001  0.000  0.005  0.006
    4  0.009  0.001  0.004  0.014
    5  0.000  0.000  0.006  0.006
    6  0.004  0.001  0.005  0.010
    7  0.001  0.000  0.005  0.006
    8  0.004  0.001  0.005  0.010
    9  0.000  0.001  0.006  0.007
   10  0.000  0.001  0.033  0.033
   11  0.000  0.001  0.020  0.021
   12  0.008  0.000  0.021  0.030
   13  0.000  0.001  0.020  0.021
   14  0.000  0.001  0.016  0.017
   15  0.010  0.002  0.020  0.031
   16  0.008  0.000  0.021  0.030
   17  0.010  0.002  0.020  0.031
   18  0.000  0.000  0.060  0.060
   19  0.014  0.001  0.020  0.035
   20  0.000  0.002  0.022  0.023
   21  0.000  0.001  0.025  0.026
   22  0.017  0.001  0.020  0.038
   23  0.000  0.001  0.025  0.026
   24  0.000  0.001  0.029  0.030
   25  0.000  0.000  0.068  0.068
   26  0.015  0.001  0.020  0.035
   27  0.017  0.001  0.020  0.038
   28  0.000  0.001  0.005  0.006
   29  0.005  0.001  0.004  0.010
   30  0.000  0.000  0.006  0.006
   31  0.005  0.001  0.004  0.010
   32  0.005  0.001  0.003  0.009
   33  0.000  0.000  0.006  0.006
   34  0.005  0.001  0.003  0.009
   35  0.000  0.001  0.009  0.009
   36  0.000  0.000  0.004  0.004
   37  0.000  0.000  0.000  0.000
   38  0.000  0.000  0.000  0.000
tot    0.147  0.028  0.575  0.751
 
band    18 # energy   -5.41309008 # occ.  2.00000000
 
ion      s      p      d    tot
    1  0.000  0.001  0.014  0.015
    2  0.000  0.001  0.005  0.006
    3  0.008  0.001  0.005  0.014
    4  0.000  0.001  0.005  0.006
    5  0.000  0.000  0.006  0.006
    6  0.005  0.001  0.004  0.010
    7  0.008  0.001  0.005  0.014
    8  0.005  0.001  0.004  0.010
    9  0.000  0.001  0.006  0.007
   10  0.011  0.000  0.018  0.029
   11  0.000  0.001  0.017  0.018
   12  0.003  0.000  0.029  0.032
   13  0.000  0.001  0.017  0.018
   14  0.000  0.001  0.021  0.022
   15  0.003  0.001  0.047  0.050
   16  0.003  0.000  0.029  0.032
   17  0.003  0.001  0.047  0.050
   18  0.013  0.002  0.006  0.021
   19  0.005  0.001  0.052  0.057
   20  0.000  0.000  0.026  0.027
   21  0.000  0.001  0.023  0.024
   22  0.006  0.001  0.026  0.032
   23  0.000  0.001  0.023  0.024
   24  0.022  0.001  0.018  0.040
   25  0.019  0.001  0.004  0.024
   26  0.005  0.001  0.052  0.057
   27  0.006  0.001  0.026  0.032
   28  0.000  0.001  0.005  0.006
   29  0.002  0.000  0.005  0.007
   30  0.007  0.001  0.002  0.010
   31  0.002  0.000  0.005  0.007
   32  0.002  0.001  0.005  0.008
   33  0.007  0.001  0.002  0.010
   34  0.002  0.001  0.005  0.008
   35  0.000  0.001  0.009  0.009
   36  0.000  0.000  0.004  0.004
   37  0.000  0.000  0.000  0.000
   38  0.000  0.000  0.000  0.000
tot    0.147  0.028  0.575  0.751
 
band    19 # energy   -5.29385862 # occ.  2.00000000
 
ion      s      p      d    tot
    1  0.010  0.000  0.001  0.012
    2  0.000  0.000  0.009  0.009
    3  0.000  0.000  0.009  0.009
    4  0.000  0.000  0.009  0.009
    5  0.014  0.001  0.001  0.017
    6  0.000  0.000  0.009  0.009
    7  0.000  0.000  0.009  0.009
    8  0.000  0.000  0.009  0.009
    9  0.000  0.000  0.002  0.002
   10  0.000  0.000  0.025  0.025
   11  0.002  0.001  0.024  0.028
   12  0.000  0.000  0.025  0.025
   13  0.002  0.001  0.024  0.028
   14  0.002  0.001  0.024  0.028
   15  0.001  0.000  0.017  0.018
   16  0.000  0.000  0.025  0.025
   17  0.001  0.000  0.017  0.018
   18  0.001  0.000  0.017  0.018
   19  0.003  0.000  0.037  0.040
   20  0.009  0.000  0.008  0.017
   21  0.009  0.000  0.008  0.017
   22  0.002  0.000  0.022  0.024
   23  0.009  0.000  0.008  0.017
   24  0.002  0.000  0.022  0.024
   25  0.003  0.000  0.037  0.040
   26  0.003  0.000  0.037  0.040
   27  0.002  0.000  0.022  0.024
   28  0.003  0.000  0.008  0.010
   29  0.001  0.000  0.010  0.011
   30  0.001  0.000  0.010  0.011
   31  0.001  0.000  0.010  0.011
   32  0.001  0.000  0.010  0.011
   33  0.001  0.000  0.010  0.011
   34  0.001  0.000  0.010  0.011
   35  0.001  0.000  0.000  0.002
   36  0.004  0.011  0.033  0.048
   37  0.004  0.052  0.000  0.056
   38  0.006  0.072  0.000  0.078
tot    0.096  0.149  0.557  0.802
 
band    20 # energy   -5.23660516 # occ.  2.00000000
 
ion      s      p      d    tot
    1  0.000  0.000  0.001  0.001
    2  0.000  0.000  0.001  0.001
    3  0.001  0.000  0.001  0.002
    4  0.000  0.000  0.001  0.001
    5  0.000  0.000  0.002  0.002
    6  0.000  0.000  0.001  0.001
    7  0.001  0.000  0.001  0.002
    8  0.000  0.000  0.001  0.001
    9  0.000  0.000  0.001  0.001
   10  0.000  0.000  0.002  0.003
   11  0.000  0.000  0.001  0.001
   12  0.000  0.000  0.002  0.002
   13  0.000  0.000  0.001  0.001
   14  0.000  0.000  0.001  0.001
   15  0.000  0.000  0.002  0.002
   16  0.000  0.000  0.002  0.002
   17  0.000  0.000  0.002  0.002
   18  0.002  0.000  0.000  0.002
   19  0.000  0.000  0.004  0.005
   20  0.000  0.000  0.007  0.008
   21  0.000  0.000  0.003  0.004
   22  0.000  0.000  0.001  0.001
   23  0.000  0.000  0.003  0.004
   24  0.000  0.000  0.001  0.001
   25  0.000  0.000  0.001  0.001
   26  0.000  0.000  0.004  0.005
   27  0.000  0.000  0.001  0.001
   28  0.000  0.000  0.008  0.008
   29  0.012  0.001  0.009  0.022
   30  0.000  0.000  0.008  0.009
   31  0.012  0.001  0.009  0.022
   32  0.008  0.001  0.006  0.016
   33  0.000  0.000  0.008  0.009
   34  0.008  0.001  0.006  0.016
   35  0.000  0.000  0.012  0.012
   36  0.000  0.007  0.033  0.040
   37  0.000  0.145  0.000  0.145
   38  0.000  0.325  0.000  0.325
tot    0.049  0.485  0.146  0.679
 
band    21 # energy   -5.23653163 # occ.  2.00000000
 
ion      s      p      d    tot
    1  0.000  0.000  0.001  0.001
    2  0.001  0.000  0.001  0.002
    3  0.000  0.000  0.001  0.001
    4  0.001  0.000  0.001  0.002
    5  0.000  0.000  0.002  0.002
    6  0.001  0.000  0.001  0.002
    7  0.000  0.000  0.001  0.001
    8  0.001  0.000  0.001  0.002
    9  0.000  0.000  0.001  0.001
   10  0.000  0.000  0.001  0.002
   11  0.000  0.000  0.001  0.001
   12  0.000  0.000  0.002  0.002
   13  0.000  0.000  0.001  0.001
   14  0.000  0.000  0.000  0.001
   15  0.001  0.000  0.001  0.002
   16  0.000  0.000  0.002  0.002