PROCAR new format
# of k-points:   10         # of bands:  252         # of ions:   38

 k-point     1 :    0.00000000 0.00000000 0.00000000     weight = 0.01562500

band     1 # energy  -18.97036792 # occ.  2.00000000
 
ion      s      p      d    tot
    1  0.000  0.000  0.000  0.000
    2  0.000  0.000  0.000  0.000
    3  0.000  0.000  0.000  0.000
    4  0.000  0.000  0.000  0.000
    5  0.000  0.000  0.000  0.000
    6  0.000  0.000  0.000  0.000
    7  0.000  0.000  0.000  0.000
    8  0.000  0.000  0.000  0.000
    9  0.000  0.000  0.000  0.000
   10  0.000  0.000  0.000  0.000
   11  0.000  0.000  0.000  0.000
   12  0.000  0.000  0.000  0.000
   13  0.000  0.000  0.000  0.000
   14  0.000  0.000  0.000  0.000
   15  0.000  0.000  0.000  0.000
   16  0.000  0.000  0.000  0.000
   17  0.000  0.000  0.000  0.000
   18  0.000  0.000  0.000  0.000
   19  0.000  0.000  0.000  0.000
   20  0.000  0.000  0.000  0.000
   21  0.000  0.000  0.000  0.000
   22  0.000  0.000  0.000  0.000
   23  0.000  0.000  0.000  0.000
   24  0.000  0.000  0.000  0.000
   25  0.000  0.000  0.000  0.000
   26  0.000  0.000  0.000  0.000
   27  0.000  0.000  0.000  0.000
   28  0.000  0.000  0.000  0.000
   29  0.000  0.000  0.000  0.000
   30  0.000  0.000  0.000  0.000
   31  0.000  0.000  0.000  0.000
   32  0.000  0.000  0.000  0.000
   33  0.000  0.000  0.000  0.000
   34  0.000  0.000  0.000  0.000
   35  0.000  0.000  0.000  0.000
   36  0.012  0.014  0.024  0.049
   37  0.743  0.012  0.000  0.755
   38  0.114  0.023  0.000  0.137
tot    0.868  0.050  0.024  0.942
 
band     2 # energy   -8.13356614 # occ.  2.00000000
 
ion      s      p      d    tot
    1  0.002  0.000  0.000  0.002
    2  0.001  0.000  0.000  0.002
    3  0.001  0.000  0.000  0.002
    4  0.001  0.000  0.000  0.002
    5  0.001  0.000  0.000  0.002
    6  0.001  0.000  0.000  0.002
    7  0.001  0.000  0.000  0.002
    8  0.001  0.000  0.000  0.002
    9  0.001  0.000  0.000  0.001
   10  0.007  0.000  0.000  0.007
   11  0.007  0.000  0.000  0.007
   12  0.007  0.000  0.000  0.007
   13  0.007  0.000  0.000  0.007
   14  0.007  0.000  0.000  0.007
   15  0.006  0.000  0.000  0.006
   16  0.007  0.000  0.000  0.007
   17  0.006  0.000  0.000  0.006
   18  0.006  0.000  0.000  0.006
   19  0.008  0.000  0.000  0.008
   20  0.017  0.000  0.002  0.020
   21  0.017  0.000  0.002  0.020
   22  0.008  0.000  0.000  0.008
   23  0.017  0.000  0.002  0.020
   24  0.008  0.000  0.000  0.008
   25  0.008  0.000  0.000  0.008
   26  0.008  0.000  0.000  0.008
   27  0.008  0.000  0.000  0.008
   28  0.002  0.000  0.000  0.002
   29  0.004  0.000  0.000  0.004
   30  0.004  0.000  0.000  0.004
   31  0.004  0.000  0.000  0.004
   32  0.004  0.000  0.000  0.004
   33  0.004  0.000  0.000  0.004
   34  0.004  0.000  0.000  0.004
   35  0.002  0.000  0.000  0.002
   36  0.075  0.012  0.086  0.173
   37  0.008  0.314  0.000  0.322
   38  0.106  0.012  0.000  0.119
tot    0.393  0.343  0.095  0.831
 
band     3 # energy   -7.81455097 # occ.  2.00000000
 
ion      s      p      d    tot
    1  0.006  0.000  0.000  0.006
    2  0.006  0.000  0.000  0.006
    3  0.006  0.000  0.000  0.006
    4  0.006  0.000  0.000  0.006
    5  0.006  0.000  0.000  0.006
    6  0.006  0.000  0.000  0.006
    7  0.006  0.000  0.000  0.006
    8  0.006  0.000  0.000  0.006
    9  0.006  0.000  0.000  0.006
   10  0.020  0.000  0.000  0.020
   11  0.021  0.000  0.000  0.021
   12  0.020  0.000  0.000  0.020
   13  0.021  0.000  0.000  0.021
   14  0.021  0.000  0.000  0.021
   15  0.021  0.000  0.000  0.022
   16  0.020  0.000  0.000  0.020
   17  0.021  0.000  0.000  0.022
   18  0.021  0.000  0.000  0.022
   19  0.014  0.000  0.000  0.014
   20  0.010  0.001  0.001  0.012
   21  0.010  0.001  0.001  0.012
   22  0.016  0.000  0.000  0.016
   23  0.010  0.001  0.001  0.012
   24  0.016  0.000  0.000  0.016
   25  0.014  0.000  0.000  0.014
   26  0.014  0.000  0.000  0.014
   27  0.016  0.000  0.000  0.016
   28  0.002  0.000  0.000  0.003
   29  0.002  0.000  0.000  0.002
   30  0.002  0.000  0.000  0.002
   31  0.002  0.000  0.000  0.002
   32  0.002  0.000  0.000  0.002
   33  0.002  0.000  0.000  0.002
   34  0.002  0.000  0.000  0.002
   35  0.003  0.000  0.000  0.003
   36  0.011  0.016  0.053  0.080
   37  0.007  0.176  0.000  0.183
   38  0.059  0.006  0.000  0.065
tot    0.448  0.209  0.060  0.717
 
band     4 # energy   -6.73487151 # occ.  2.00000000
 
ion      s      p      d    tot
    1  0.017  0.000  0.001  0.018
    2  0.016  0.000  0.001  0.018
    3  0.016  0.000  0.001  0.018
    4  0.016  0.000  0.001  0.018
    5  0.016  0.000  0.001  0.017
    6  0.016  0.000  0.001  0.018
    7  0.016  0.000  0.001  0.018
    8  0.016  0.000  0.001  0.018
    9  0.016  0.000  0.001  0.018
   10  0.010  0.001  0.002  0.013
   11  0.009  0.001  0.002  0.013
   12  0.010  0.001  0.002  0.013
   13  0.009  0.001  0.002  0.013
   14  0.009  0.001  0.002  0.013
   15  0.009  0.002  0.002  0.013
   16  0.010  0.001  0.002  0.013
   17  0.009  0.002  0.002  0.013
   18  0.009  0.002  0.002  0.013
   19  0.014  0.001  0.003  0.018
   20  0.013  0.001  0.003  0.017
   21  0.013  0.001  0.003  0.017
   22  0.015  0.001  0.003  0.020
   23  0.013  0.001  0.003  0.017
   24  0.015  0.001  0.003  0.020
   25  0.014  0.001  0.003  0.018
   26  0.014  0.001  0.003  0.018
   27  0.015  0.001  0.003  0.020
   28  0.015  0.001  0.000  0.016
   29  0.014  0.001  0.001  0.016
   30  0.014  0.001  0.001  0.016
   31  0.014  0.001  0.001  0.016
   32  0.014  0.001  0.001  0.016
   33  0.014  0.001  0.001  0.016
   34  0.014  0.001  0.001  0.016
   35  0.015  0.001  0.000  0.016
   36  0.007  0.004  0.012  0.022
   37  0.001  0.013  0.000  0.015
   38  0.004  0.000  0.000  0.004
tot    0.485  0.048  0.076  0.609
 
band     5 # energy   -5.80779019 # occ.  2.00000000
 
ion      s      p      d    tot
    1  0.013  0.000  0.022  0.035
    2  0.019  0.000  0.018  0.037
    3  0.019  0.000  0.018  0.037
    4  0.019  0.000  0.018  0.037
    5  0.013  0.000  0.017  0.030
    6  0.019  0.000  0.018  0.037
    7  0.019  0.000  0.018  0.037
    8  0.019  0.000  0.018  0.037
    9  0.034  0.000  0.014  0.047
   10  0.011  0.001  0.020  0.031
   11  0.015  0.001  0.016  0.033
   12  0.011  0.001  0.020  0.031
   13  0.015  0.001  0.016  0.033
   14  0.015  0.001  0.016  0.033
   15  0.000  0.001  0.023  0.024
   16  0.011  0.001  0.020  0.031
   17  0.000  0.001  0.023  0.024
   18  0.000  0.001  0.023  0.024
   19  0.000  0.001  0.004  0.004
   20  0.005  0.001  0.003  0.009
   21  0.005  0.001  0.003  0.009
   22  0.002  0.001  0.001  0.004
   23  0.005  0.001  0.003  0.009
   24  0.002  0.001  0.001  0.004
   25  0.000  0.001  0.004  0.004
   26  0.000  0.001  0.004  0.004
   27  0.002  0.001  0.001  0.004
   28  0.006  0.000  0.001  0.007
   29  0.004  0.000  0.002  0.006
   30  0.004  0.000  0.002  0.006
   31  0.004  0.000  0.002  0.006
   32  0.004  0.000  0.002  0.006
   33  0.004  0.000  0.002  0.006
   34  0.004  0.000  0.002  0.006
   35  0.007  0.000  0.001  0.008
   36  0.000  0.001  0.002  0.003
   37  0.000  0.000  0.000  0.000
   38  0.000  0.000  0.000  0.000
tot    0.307  0.019  0.379  0.704
 
band     6 # energy   -5.78417843 # occ.  2.00000000
 
ion      s      p      d    tot
    1  0.000  0.000  0.008  0.009
    2  0.004  0.001  0.004  0.008
    3  0.006  0.001  0.003  0.010
    4  0.004  0.001  0.004  0.009
    5  0.000  0.001  0.007  0.008
    6  0.000  0.000  0.003  0.003
    7  0.006  0.001  0.003  0.010
    8  0.000  0.000  0.003  0.003
    9  0.000  0.000  0.001  0.001
   10  0.000  0.000  0.036  0.036
   11  0.039  0.002  0.015  0.056
   12  0.026  0.002  0.013  0.041
   13  0.040  0.001  0.014  0.056
   14  0.000  0.003  0.026  0.030
   15  0.002  0.001  0.011  0.013
   16  0.026  0.002  0.013  0.040
   17  0.002  0.001  0.011  0.013
   18  0.000  0.004  0.004  0.008
   19  0.006  0.001  0.010  0.018
   20  0.000  0.002  0.031  0.034
   21  0.047  0.001  0.016  0.064
   22  0.014  0.001  0.010  0.025
   23  0.046  0.001  0.016  0.063
   24  0.000  0.000  0.028  0.028
   25  0.000  0.004  0.003  0.007
   26  0.006  0.001  0.011  0.018
   27  0.013  0.001  0.010  0.025
   28  0.000  0.000  0.001  0.001
   29  0.000  0.000  0.002  0.002
   30  0.005  0.001  0.003  0.009
   31  0.000  0.000  0.002  0.002
   32  0.005  0.001  0.004  0.009
   33  0.004  0.001  0.003  0.008
   34  0.005  0.001  0.004  0.009
   35  0.000  0.000  0.004  0.004
   36  0.000  0.002  0.010  0.012
   37  0.000  0.000  0.000  0.000
   38  0.000  0.000  0.000  0.000
tot    0.306  0.043  0.346  0.695
 
band     7 # energy   -5.78416567 # occ.  2.00000000
 
ion      s      p      d    tot
    1  0.000  0.000  0.008  0.009
    2  0.003  0.001  0.003  0.006
    3  0.001  0.000  0.003  0.005
    4  0.003  0.001  0.003  0.006
    5  0.000  0.001  0.007  0.008
    6  0.007  0.001  0.003  0.011
    7  0.001  0.000  0.003  0.004
    8  0.007  0.001  0.003  0.011
    9  0.000  0.000  0.001  0.001
   10  0.035  0.002  0.005  0.042
   11  0.014  0.003  0.022  0.039
   12  0.008  0.001  0.029  0.037
   13  0.013  0.003  0.023  0.038
   14  0.053  0.001  0.011  0.064
   15  0.001  0.003  0.006  0.010
   16  0.009  0.001  0.028  0.038
   17  0.001  0.003  0.006  0.009
   18  0.002  0.000  0.013  0.015
   19  0.002  0.003  0.006  0.011
   20  0.062  0.001  0.011  0.074
   21  0.015  0.002  0.026  0.043
   22  0.004  0.001  0.022  0.027
   23  0.016  0.002  0.026  0.044
   24  0.018  0.002  0.004  0.024
   25  0.008  0.000  0.013  0.022
   26  0.002  0.003  0.005  0.010
   27  0.005  0.001  0.022  0.027
   28  0.000  0.000  0.001  0.001
   29  0.006  0.001  0.004  0.011
   30  0.002  0.000  0.003  0.005
   31  0.006  0.001  0.004  0.011
   32  0.001  0.000  0.002  0.004
   33  0.002  0.001  0.003  0.005
   34  0.001  0.000  0.002  0.004
   35  0.000  0.000  0.004  0.004
   36  0.000  0.002  0.010  0.012
   37  0.000  0.000  0.000  0.000
   38  0.000  0.000  0.000  0.000
tot    0.306  0.043  0.346  0.695
 
band     8 # energy   -5.77879171 # occ.  2.00000000
 
ion      s      p      d    tot
    1  0.018  0.001  0.000  0.019
    2  0.003  0.001  0.008  0.011
    3  0.003  0.001  0.008  0.011
    4  0.003  0.001  0.008  0.011
    5  0.008  0.000  0.004  0.011
    6  0.003  0.001  0.008  0.011
    7  0.003  0.001  0.008  0.011
    8  0.003  0.001  0.008  0.011
    9  0.003  0.002  0.007  0.012
   10  0.003  0.000  0.031  0.035
   11  0.001  0.002  0.015  0.018
   12  0.003  0.000  0.032  0.035
   13  0.001  0.002  0.015  0.018
   14  0.001  0.002  0.015  0.018
   15  0.038  0.003  0.004  0.045
   16  0.003  0.000  0.032  0.035
   17  0.038  0.003  0.004  0.045
   18  0.038  0.003  0.004  0.045
   19  0.000  0.001  0.018  0.019
   20  0.017  0.000  0.016  0.033
   21  0.017  0.000  0.016  0.033
   22  0.019  0.003  0.003  0.025
   23  0.017  0.000  0.016  0.033
   24  0.019  0.003  0.003  0.025
   25  0.000  0.001  0.018  0.019
   26  0.000  0.001  0.018  0.019
   27  0.019  0.003  0.003  0.025
   28  0.000  0.000  0.002  0.002
   29  0.001  0.000  0.004  0.006
   30  0.001  0.000  0.004  0.006
   31  0.001  0.000  0.004  0.006
   32  0.001  0.000  0.004  0.006
   33  0.001  0.000  0.004  0.006
   34  0.001  0.000  0.004  0.006
   35  0.001  0.001  0.002  0.004
   36  0.011  0.006  0.003  0.020
   37  0.001  0.007  0.000  0.008
   38  0.002  0.000  0.000  0.002
tot    0.305  0.050  0.350  0.706
 
band     9 # energy   -5.73934266 # occ.  2.00000000
 
ion      s      p      d    tot
    1  0.007  0.001  0.000  0.008
    2  0.000  0.000  0.004  0.005
    3  0.000  0.000  0.004  0.005
    4  0.000  0.000  0.004  0.005
    5  0.011  0.001  0.002  0.014
    6  0.000  0.000  0.004  0.005
    7  0.000  0.000  0.004  0.005
    8  0.000  0.000  0.004  0.005
    9  0.000  0.000  0.001  0.001
   10  0.014  0.003  0.005  0.022
   11  0.019  0.000  0.013  0.032
   12  0.013  0.003  0.005  0.021
   13  0.019  0.000  0.013  0.032
   14  0.019  0.000  0.013  0.032
   15  0.000  0.001  0.019  0.020
   16  0.013  0.003  0.005  0.021
   17  0.000  0.001  0.019  0.020
   18  0.000  0.001  0.019  0.020
   19  0.033  0.002  0.004  0.039
   20  0.000  0.001  0.025  0.027
   21  0.000  0.001  0.025  0.027
   22  0.001  0.000  0.029  0.030
   23  0.000  0.001  0.025  0.027
   24  0.001  0.000  0.029  0.030
   25  0.033  0.002  0.004  0.039
   26  0.033  0.002  0.004  0.039
   27  0.001  0.000  0.029  0.030
   28  0.000  0.001  0.009  0.011
   29  0.007  0.000  0.009  0.016
   30  0.007  0.000  0.009  0.016
   31  0.007  0.000  0.009  0.016
   32  0.007  0.000  0.009  0.016
   33  0.007  0.000  0.009  0.016
   34  0.007  0.000  0.009  0.016
   35  0.018  0.000  0.001  0.020
   36  0.009  0.000  0.011  0.021
   37  0.000  0.000  0.000  0.000
   38  0.000  0.000  0.000  0.000
tot    0.286  0.031  0.393  0.710
 
band    10 # energy   -5.73134003 # occ.  2.00000000
 
ion      s      p      d    tot
    1  0.000  0.001  0.004  0.005
    2  0.005  0.001  0.004  0.010
    3  0.008  0.001  0.004  0.013
    4  0.005  0.001  0.004  0.010
    5  0.000  0.000  0.004  0.004
    6  0.000  0.000  0.003  0.004
    7  0.008  0.001  0.004  0.013
    8  0.000  0.000  0.003  0.004
    9  0.000  0.001  0.011  0.013
   10  0.028  0.000  0.016  0.044
   11  0.002  0.002  0.019  0.023
   12  0.007  0.004  0.007  0.017
   13  0.002  0.002  0.020  0.023
   14  0.007  0.001  0.008  0.016
   15  0.016  0.001  0.034  0.052
   16  0.007  0.003  0.007  0.018
   17  0.015  0.001  0.035  0.051
   18  0.063  0.002  0.005  0.070
   19  0.011  0.001  0.027  0.038
   20  0.001  0.001  0.012  0.014
   21  0.000  0.002  0.011  0.013
   22  0.008  0.003  0.014  0.026
   23  0.000  0.002  0.011  0.013
   24  0.034  0.001  0.012  0.047
   25  0.041  0.002  0.003  0.046
   26  0.010  0.001  0.027  0.038
   27  0.009  0.003  0.014  0.026
   28  0.000  0.000  0.006  0.007
   29  0.000  0.000  0.002  0.002
   30  0.003  0.001  0.002  0.005
   31  0.000  0.000  0.002  0.002
   32  0.004  0.001  0.003  0.008
   33  0.003  0.001  0.002  0.005
   34  0.004  0.001  0.003  0.007
   35  0.000  0.001  0.004  0.004
   36  0.000  0.000  0.001  0.001
   37  0.000  0.000  0.000  0.000
   38  0.000  0.000  0.000  0.000
tot    0.299  0.042  0.352  0.693
 
band    11 # energy   -5.73131236 # occ.  2.00000000
 
ion      s      p      d    tot
    1  0.000  0.001  0.004  0.005
    2  0.004  0.001  0.003  0.008
    3  0.001  0.000  0.004  0.005
    4  0.004  0.001  0.003  0.008
    5  0.000  0.000  0.004  0.004
    6  0.008  0.001  0.004  0.014
    7  0.001  0.000  0.004  0.005
    8  0.008  0.001  0.004  0.014
    9  0.000  0.001  0.011  0.013
   10  0.000  0.005  0.004  0.009
   11  0.005  0.001  0.012  0.019
   12  0.021  0.001  0.013  0.036
   13  0.005  0.001  0.012  0.018
   14  0.000  0.002  0.023  0.025
   15  0.047  0.001  0.016  0.064
   16  0.020  0.001  0.013  0.035
   17  0.048  0.001  0.015  0.064
   18  0.000  0.001  0.045  0.045
   19  0.030  0.002  0.011  0.043
   20  0.000  0.002  0.011  0.013
   21  0.001  0.001  0.012  0.014
   22  0.026  0.001  0.013  0.040
   23  0.001  0.001  0.012  0.014
   24  0.000  0.004  0.015  0.019
   25  0.000  0.000  0.035  0.035
   26  0.031  0.002  0.011  0.043
   27  0.025  0.001  0.013  0.040
   28  0.000  0.000  0.006  0.007
   29  0.004  0.001  0.002  0.008
   30  0.002  0.000  0.003  0.005
   31  0.005  0.001  0.002  0.008
   32  0.001  0.000  0.002  0.002
   33  0.002  0.000  0.003  0.005
   34  0.001  0.000  0.002  0.002
   35  0.000  0.001  0.004  0.004
   36  0.000  0.000  0.001  0.001
   37  0.000  0.000  0.000  0.000
   38  0.000  0.000  0.000  0.000
tot    0.299  0.042  0.352  0.693
 
band    12 # energy   -5.71986237 # occ.  2.00000000
 
ion      s      p      d    tot
    1  0.002  0.001  0.001  0.004
    2  0.000  0.000  0.003  0.003
    3  0.000  0.000  0.003  0.003
    4  0.000  0.000  0.003  0.003
    5  0.007  0.000  0.000  0.008
    6  0.000  0.000  0.003  0.003
    7  0.000  0.000  0.003  0.003
    8  0.000  0.000  0.003  0.003
    9  0.000  0.000  0.002  0.002
   10  0.012  0.001  0.004  0.017
   11  0.004  0.000  0.017  0.021
   12  0.012  0.001  0.004  0.017
   13  0.004  0.000  0.017  0.021
   14  0.004  0.000  0.017  0.021
   15  0.002  0.000  0.013  0.014
   16  0.012  0.001  0.004  0.017
   17  0.002  0.000  0.013  0.014
   18  0.002  0.000  0.013  0.014
   19  0.000  0.000  0.024  0.025
   20  0.013  0.002  0.023  0.038
   21  0.013  0.002  0.023  0.038
   22  0.012  0.000  0.022  0.034
   23  0.013  0.002  0.023  0.038
   24  0.012  0.000  0.022  0.034
   25  0.000  0.000  0.024  0.025
   26  0.000  0.000  0.024  0.025
   27  0.012  0.000  0.022  0.034
   28  0.027  0.000  0.008  0.036
   29  0.014  0.000  0.014  0.028
   30  0.014  0.000  0.014  0.028
   31  0.014  0.000  0.014  0.028
   32  0.014  0.000  0.014  0.028
   33  0.014  0.000  0.014  0.028
   34  0.014  0.000  0.014  0.028
   35  0.006  0.000  0.017  0.024
   36  0.007  0.000  0.014  0.022
   37  0.000  0.000  0.000  0.000
   38  0.000  0.000  0.000  0.000
tot    0.263  0.016  0.450  0.729
 
band    13 # energy   -5.29896495 # occ.  2.00000000
 
ion      s      p      d    tot
    1  0.018  0.002  0.001  0.022
    2  0.000  0.001  0.007  0.008
    3  0.000  0.001  0.007  0.008
    4  0.000  0.001  0.007  0.008
    5  0.002  0.001  0.002  0.005
    6  0.000  0.001  0.007  0.008
    7  0.000  0.001  0.007  0.008
    8  0.000  0.001  0.007  0.008
    9  0.008  0.000  0.000  0.008
   10  0.007  0.002  0.011  0.019
   11  0.007  0.001  0.028  0.036
   12  0.007  0.002  0.011  0.019
   13  0.007  0.001  0.028  0.036
   14  0.007  0.001  0.028  0.036
   15  0.000  0.000  0.037  0.037
   16  0.007  0.002  0.011  0.019
   17  0.000  0.000  0.037  0.037
   18  0.000  0.000  0.037  0.038
   19  0.010  0.001  0.005  0.016
   20  0.000  0.000  0.041  0.042
   21  0.000  0.000  0.041  0.041
   22  0.010  0.001  0.035  0.046
   23  0.000  0.000  0.041  0.041
   24  0.010  0.001  0.035  0.045
   25  0.010  0.001  0.005  0.016
   26  0.010  0.001  0.005  0.016
   27  0.010  0.001  0.035  0.046
   28  0.017  0.002  0.001  0.020
   29  0.000  0.001  0.008  0.008
   30  0.000  0.001  0.008  0.008
   31  0.000  0.001  0.008  0.008
   32  0.000  0.001  0.008  0.008
   33  0.000  0.001  0.008  0.008
   34  0.000  0.001  0.008  0.008
   35  0.002  0.001  0.003  0.006
   36  0.005  0.001  0.002  0.008
   37  0.000  0.000  0.000  0.000
   38  0.000  0.000  0.000  0.000
tot    0.152  0.030  0.571  0.753
 
band    14 # energy   -5.29052220 # occ.  2.00000000
 
ion      s      p      d    tot
    1  0.000  0.001  0.004  0.004
    2  0.001  0.001  0.005  0.007
    3  0.010  0.001  0.005  0.016
    4  0.001  0.001  0.005  0.007
    5  0.000  0.001  0.010  0.012
    6  0.005  0.001  0.004  0.009
    7  0.010  0.001  0.005  0.016
    8  0.005  0.001  0.004  0.009
    9  0.000  0.000  0.010  0.010
   10  0.000  0.001  0.046  0.047
   11  0.016  0.001  0.021  0.038
   12  0.006  0.002  0.019  0.026
   13  0.016  0.001  0.021  0.038
   14  0.000  0.000  0.055  0.055
   15  0.002  0.000  0.021  0.023
   16  0.006  0.002  0.019  0.026
   17  0.002  0.000  0.021  0.023
   18  0.000  0.001  0.013  0.014
   19  0.004  0.000  0.018  0.022
   20  0.000  0.000  0.069  0.069
   21  0.017  0.001  0.022  0.040
   22  0.004  0.001  0.018  0.024
   23  0.017  0.001  0.022  0.040
   24  0.000  0.001  0.039  0.040
   25  0.000  0.001  0.009  0.010
   26  0.004  0.000  0.018  0.022
   27  0.004  0.001  0.019  0.024
   28  0.000  0.000  0.007  0.007
   29  0.003  0.001  0.004  0.007
   30  0.009  0.001  0.005  0.014
   31  0.003  0.001  0.004  0.007
   32  0.002  0.001  0.004  0.006
   33  0.009  0.001  0.005  0.014
   34  0.002  0.001  0.004  0.006
   35  0.000  0.000  0.003  0.003
   36  0.000  0.003  0.009  0.012
   37  0.000  0.000  0.000  0.000
   38  0.000  0.000  0.000  0.000
tot    0.155  0.032  0.563  0.750
 
band    15 # energy   -5.29051577 # occ.  2.00000000
 
ion      s      p      d    tot
    1  0.000  0.001  0.004  0.004
    2  0.009  0.001  0.004  0.014
    3  0.000  0.000  0.005  0.006
    4  0.009  0.001  0.004  0.014
    5  0.000  0.001  0.010  0.012
    6  0.005  0.001  0.005  0.012
    7  0.000  0.000  0.005  0.006
    8  0.006  0.001  0.005  0.012
    9  0.000  0.000  0.010  0.010
   10  0.008  0.002  0.010  0.019
   11  0.005  0.000  0.043  0.049
   12  0.002  0.001  0.037  0.040
   13  0.005  0.000  0.043  0.049
   14  0.022  0.001  0.009  0.032
   15  0.001  0.001  0.015  0.017
   16  0.002  0.001  0.037  0.040
   17  0.001  0.001  0.015  0.017
   18  0.003  0.000  0.023  0.026
   19  0.001  0.001  0.012  0.014
   20  0.023  0.001  0.006  0.031
   21  0.006  0.000  0.053  0.059
   22  0.001  0.001  0.032  0.034
   23  0.006  0.000  0.053  0.059
   24  0.006  0.001  0.012  0.019
   25  0.005  0.000  0.021  0.026
   26  0.001  0.001  0.012  0.014
   27  0.001  0.001  0.032  0.034
   28  0.000  0.000  0.007  0.007
   29  0.006  0.001  0.004  0.011
   30  0.000  0.000  0.004  0.004
   31  0.006  0.001  0.004  0.011
   32  0.007  0.001  0.004  0.013
   33  0.000  0.000  0.004  0.004
   34  0.007  0.001  0.004  0.013
   35  0.000  0.000  0.003  0.003
   36  0.000  0.003  0.009  0.012
   37  0.000  0.000  0.000  0.000
   38  0.000  0.000  0.000  0.000
tot    0.155  0.032  0.563  0.750
 
band    16 # energy   -5.25369610 # occ.  2.00000000
 
ion      s      p      d    tot
    1  0.000  0.000  0.002  0.002
    2  0.000  0.001  0.009  0.009
    3  0.000  0.001  0.009  0.009
    4  0.000  0.001  0.009  0.009
    5  0.017  0.001  0.000  0.019
    6  0.000  0.001  0.009  0.009
    7  0.000  0.001  0.009  0.009
    8  0.000  0.001  0.009  0.009
    9  0.012  0.002  0.002  0.016
   10  0.003  0.000  0.041  0.044
   11  0.003  0.001  0.025  0.029
   12  0.003  0.000  0.042  0.045
   13  0.003  0.001  0.025  0.029
   14  0.003  0.001  0.025  0.029
   15  0.010  0.002  0.011  0.023
   16  0.003  0.000  0.042  0.045
   17  0.010  0.002  0.011  0.023
   18  0.010  0.002  0.011  0.023
   19  0.003  0.000  0.040  0.043
   20  0.012  0.002  0.016  0.030
   21  0.012  0.002  0.016  0.030
   22  0.004  0.001  0.020  0.025
   23  0.012  0.002  0.016  0.030
   24  0.003  0.001  0.020  0.024
   25  0.004  0.000  0.040  0.043
   26  0.003  0.000  0.040  0.043
   27  0.004  0.001  0.020  0.025
   28  0.000  0.000  0.002  0.002
   29  0.000  0.001  0.006  0.007
   30  0.000  0.001  0.006  0.007
   31  0.000  0.001  0.006  0.007
   32  0.000  0.001  0.006  0.007
   33  0.000  0.001  0.006  0.007
   34  0.000  0.001  0.006  0.007
   35  0.011  0.001  0.000  0.012
   36  0.010  0.007  0.000  0.017
   37  0.001  0.004  0.000  0.005
   38  0.002  0.000  0.000  0.002
tot    0.156  0.041  0.559  0.756
 
band    17 # energy   -5.24691316 # occ.  2.00000000
 
ion      s      p      d    tot
    1  0.000  0.001  0.015  0.016
    2  0.009  0.001  0.004  0.015
    3  0.001  0.000  0.005  0.006
    4  0.009  0.001  0.004  0.015
    5  0.000  0.000  0.006  0.006
    6  0.004  0.001  0.005  0.011
    7  0.001  0.000  0.005  0.006
    8  0.004  0.001  0.005  0.011
    9  0.000  0.001  0.006  0.007
   10  0.000  0.001  0.035  0.036
   11  0.000  0.001  0.020  0.021
   12  0.008  0.000  0.022  0.031
   13  0.000  0.001  0.020  0.021
   14  0.000  0.001  0.016  0.017
   15  0.010  0.002  0.020  0.032
   16  0.008  0.000  0.022  0.031
   17  0.010  0.002  0.020  0.032
   18  0.000  0.000  0.061  0.061
   19  0.016  0.001  0.019  0.036
   20  0.000  0.002  0.021  0.023
   21  0.000  0.001  0.022  0.023
   22  0.016  0.001  0.021  0.038
   23  0.000  0.001  0.022  0.023
   24  0.000  0.001  0.028  0.029
   25  0.000  0.000  0.067  0.067
   26  0.016  0.001  0.019  0.036
   27  0.016  0.001  0.021  0.038
   28  0.000  0.001  0.006  0.006
   29  0.005  0.001  0.004  0.010
   30  0.000  0.000  0.005  0.005
   31  0.005  0.001  0.004  0.010
   32  0.005  0.001  0.003  0.009
   33  0.000  0.000  0.005  0.005
   34  0.005  0.001  0.003  0.009
   35  0.000  0.001  0.008  0.009
   36  0.000  0.000  0.002  0.002
   37  0.000  0.000  0.000  0.000
   38  0.000  0.000  0.000  0.000
tot    0.151  0.029  0.570  0.750
 
band    18 # energy   -5.24688982 # occ.  2.00000000
 
ion      s      p      d    tot
    1  0.000  0.001  0.015  0.016
    2  0.000  0.001  0.005  0.006
    3  0.009  0.001  0.005  0.015
    4  0.000  0.001  0.005  0.006
    5  0.000  0.000  0.006  0.006
    6  0.005  0.001  0.005  0.011
    7  0.009  0.001  0.005  0.015
    8  0.005  0.001  0.005  0.011
    9  0.000  0.001  0.006  0.007
   10  0.011  0.000  0.018  0.029
   11  0.000  0.001  0.017  0.018
   12  0.003  0.000  0.031  0.034
   13  0.000  0.001  0.017  0.018
   14  0.000  0.001  0.021  0.022
   15  0.003  0.001  0.048  0.052
   16  0.003  0.000  0.031  0.034
   17  0.003  0.001  0.048  0.052
   18  0.013  0.002  0.006  0.022
   19  0.005  0.001  0.051  0.057
   20  0.000  0.000  0.022  0.022
   21  0.000  0.001  0.021  0.023
   22  0.005  0.001  0.026  0.032
   23  0.000  0.001  0.021  0.023
   24  0.022  0.001  0.019  0.041
   25  0.021  0.001  0.004  0.026
   26  0.005  0.001  0.051  0.057
   27  0.005  0.001  0.026  0.032
   28  0.000  0.001  0.006  0.006
   29  0.002  0.000  0.004  0.006
   30  0.007  0.001  0.003  0.011
   31  0.002  0.000  0.004  0.006
   32  0.002  0.001  0.005  0.007
   33  0.007  0.001  0.003  0.011
   34  0.002  0.001  0.005  0.007
   35  0.000  0.001  0.008  0.009
   36  0.000  0.000  0.002  0.002
   37  0.000  0.000  0.000  0.000
   38  0.000  0.000  0.000  0.000
tot    0.151  0.029  0.570  0.750
 
band    19 # energy   -4.92484642 # occ.  2.00000000
 
ion      s      p      d    tot
    1  0.010  0.000  0.011  0.021
    2  0.000  0.001  0.020  0.021
    3  0.000  0.001  0.020  0.021
    4  0.000  0.001  0.020  0.021
    5  0.004  0.001  0.002  0.006
    6  0.000  0.001  0.020  0.021
    7  0.000  0.001  0.020  0.021
    8  0.000  0.001  0.020  0.021
    9  0.026  0.001  0.003  0.030
   10  0.000  0.000  0.029  0.029
   11  0.000  0.000  0.026  0.027
   12  0.000  0.000  0.029  0.029
   13  0.000  0.000  0.026  0.027
   14  0.000  0.000  0.026  0.026
   15  0.000  0.000  0.031  0.031
   16  0.000  0.000  0.029  0.029
   17  0.000  0.000  0.031  0.031
   18  0.000  0.000  0.031  0.031
   19  0.000  0.000  0.022  0.023
   20  0.001  0.000  0.033  0.034
   21  0.001  0.000  0.033  0.034
   22  0.000  0.000  0.023  0.023
   23  0.001  0.000  0.033  0.034
   24  0.000  0.000  0.023  0.023
   25  0.000  0.000  0.022  0.023
   26  0.000  0.000  0.022  0.023
   27  0.000  0.000  0.023  0.023
   28  0.001  0.000  0.007  0.008
   29  0.000  0.001  0.016  0.017
   30  0.000  0.001  0.016  0.017
   31  0.000  0.001  0.016  0.017
   32  0.000  0.001  0.016  0.017
   33  0.000  0.001  0.016  0.017
   34  0.000  0.001  0.016  0.017
   35  0.010  0.001  0.000  0.011
   36  0.014  0.000  0.009  0.023
   37  0.000  0.000  0.000  0.000
   38  0.000  0.000  0.000  0.000
tot    0.068  0.017  0.740  0.825
 
band    20 # energy   -4.91232377 # occ.  2.00000000
 
ion      s      p      d    tot
    1  0.000  0.000  0.024  0.024
    2  0.001  0.001  0.011  0.013
    3  0.005  0.000  0.015  0.021
    4  0.001  0.001  0.011  0.013
    5  0.000  0.001  0.026  0.027
    6  0.011  0.001  0.010  0.022
    7  0.005  0.000  0.015  0.020
    8  0.011  0.001  0.010  0.022
    9  0.000  0.001  0.004  0.006
   10  0.000  0.000  0.022  0.022
   11  0.000  0.000  0.052  0.052
   12  0.000  0.000  0.012  0.013
   13  0.000  0.000  0.052  0.052
   14  0.000  0.001  0.046  0.046
   15  0.000  0.000  0.026  0.026
   16  0.000  0.000  0.012  0.013
   17  0.000  0.000  0.026  0.026
   18  0.000  0.000  0.038  0.038
   19  0.000  0.000  0.008  0.008
   20  0.001  0.000  0.064  0.066
   21  0.000  0.000  0.037  0.037
   22  0.000  0.000  0.030  0.031
   23  0.000  0.000  0.037  0.038
   24  0.000  0.000  0.026  0.026
   25  0.000  0.000  0.012  0.012
   26  0.000  0.000  0.008  0.008
   27  0.000  0.000  0.030  0.031
   28  0.000  0.000  0.007  0.007
   29  0.007  0.001  0.012  0.020
   30  0.000  0.000  0.008  0.009
   31  0.007  0.001  0.012  0.020
   32  0.005  0.000  0.006  0.011
   33  0.000  0.000  0.008  0.009
   34  0.005  0.000  0.006  0.011
   35  0.000  0.000  0.017  0.017
   36  0.000  0.003  0.007  0.010
   37  0.000  0.000  0.000  0.000
   38  0.000  0.000  0.000  0.000
tot    0.062  0.016  0.750  0.829
 
band    21 # energy   -4.91230907 # occ.  2.00000000
 
ion      s      p      d    tot
    1  0.000  0.000  0.024  0.024
    2  0.010  0.001  0.013  0.024
    3  0.006  0.001  0.009  0.016
    4  0.010  0.001  0.013  0.024
    5  0.000  0.001  0.026  0.027
    6  0.000  0.000  0.014  0.015
    7  0.007  0.001  0.009  0.016
    8  0.000  0.000  0.014  0.015
    9  0.000  0.001  0.004  0.006
   10  0.000  0.000  0.009  0.009
   11  0.000  0.001  0.048  0.048
   12  0.000  0.000  0.019  0.019
   13  0.000  0.001  0.048  0.048
   14  0.000  0.000  0.054  0.054
   15  0.000  0.000  0.034  0.034
   16  0.000  0.000  0.019  0.019