PROCAR new format
# of k-points:   10         # of bands:  252         # of ions:   37

 k-point     1 :    0.00000000 0.00000000 0.00000000     weight = 0.01562500

band     1 # energy  -18.35449393 # occ.  2.00000000
 
ion      s      p      d    tot
    1  0.000  0.000  0.000  0.000
    2  0.000  0.000  0.000  0.000
    3  0.000  0.000  0.000  0.000
    4  0.000  0.000  0.000  0.000
    5  0.000  0.000  0.000  0.000
    6  0.000  0.000  0.000  0.000
    7  0.000  0.000  0.000  0.000
    8  0.000  0.000  0.000  0.000
    9  0.000  0.000  0.000  0.000
   10  0.000  0.000  0.000  0.000
   11  0.000  0.000  0.000  0.000
   12  0.000  0.000  0.000  0.000
   13  0.000  0.000  0.000  0.000
   14  0.000  0.000  0.000  0.000
   15  0.000  0.000  0.000  0.000
   16  0.000  0.000  0.000  0.000
   17  0.000  0.000  0.000  0.000
   18  0.000  0.000  0.000  0.000
   19  0.000  0.000  0.000  0.000
   20  0.000  0.000  0.000  0.000
   21  0.000  0.000  0.000  0.000
   22  0.000  0.000  0.000  0.000
   23  0.000  0.000  0.000  0.000
   24  0.000  0.000  0.000  0.000
   25  0.000  0.000  0.000  0.000
   26  0.000  0.000  0.000  0.000
   27  0.000  0.000  0.000  0.000
   28  0.000  0.000  0.000  0.000
   29  0.000  0.000  0.000  0.000
   30  0.000  0.000  0.000  0.000
   31  0.000  0.000  0.000  0.000
   32  0.000  0.000  0.000  0.000
   33  0.000  0.000  0.000  0.000
   34  0.000  0.000  0.000  0.000
   35  0.000  0.000  0.000  0.000
   36  0.050  0.052  0.121  0.223
   37  0.768  0.014  0.000  0.782
tot    0.818  0.067  0.121  1.006
 
band     2 # energy   -8.78937238 # occ.  2.00000000
 
ion      s      p      d    tot
    1  0.006  0.001  0.000  0.007
    2  0.006  0.001  0.000  0.007
    3  0.006  0.001  0.000  0.007
    4  0.006  0.001  0.000  0.007
    5  0.006  0.001  0.000  0.007
    6  0.006  0.001  0.000  0.007
    7  0.006  0.001  0.000  0.007
    8  0.006  0.001  0.000  0.007
    9  0.006  0.001  0.000  0.007
   10  0.023  0.000  0.000  0.024
   11  0.024  0.000  0.000  0.024
   12  0.023  0.000  0.000  0.024
   13  0.024  0.000  0.000  0.024
   14  0.024  0.000  0.000  0.024
   15  0.022  0.000  0.000  0.023
   16  0.023  0.000  0.000  0.024
   17  0.022  0.000  0.000  0.023
   18  0.022  0.000  0.000  0.023
   19  0.024  0.000  0.000  0.025
   20  0.028  0.000  0.000  0.028
   21  0.028  0.000  0.000  0.028
   22  0.024  0.000  0.000  0.024
   23  0.028  0.000  0.000  0.028
   24  0.024  0.000  0.000  0.024
   25  0.024  0.000  0.000  0.025
   26  0.024  0.000  0.000  0.025
   27  0.024  0.000  0.000  0.024
   28  0.007  0.001  0.000  0.008
   29  0.007  0.001  0.000  0.008
   30  0.007  0.001  0.000  0.008
   31  0.007  0.001  0.000  0.008
   32  0.007  0.001  0.000  0.008
   33  0.007  0.001  0.000  0.008
   34  0.007  0.001  0.000  0.008
   35  0.007  0.001  0.000  0.008
   36  0.017  0.003  0.000  0.020
   37  0.001  0.001  0.000  0.002
tot    0.568  0.018  0.001  0.588
 
band     3 # energy   -7.53472727 # occ.  2.00000000
 
ion      s      p      d    tot
    1  0.018  0.001  0.000  0.019
    2  0.018  0.001  0.000  0.019
    3  0.018  0.001  0.000  0.019
    4  0.018  0.001  0.000  0.019
    5  0.017  0.001  0.000  0.019
    6  0.018  0.001  0.000  0.019
    7  0.018  0.001  0.000  0.019
    8  0.018  0.001  0.000  0.019
    9  0.018  0.001  0.000  0.019
   10  0.012  0.002  0.001  0.014
   11  0.011  0.002  0.001  0.014
   12  0.012  0.002  0.001  0.014
   13  0.011  0.002  0.001  0.014
   14  0.011  0.002  0.001  0.014
   15  0.012  0.002  0.001  0.014
   16  0.012  0.002  0.001  0.014
   17  0.012  0.002  0.001  0.014
   18  0.012  0.002  0.001  0.014
   19  0.007  0.002  0.000  0.010
   20  0.009  0.003  0.000  0.012
   21  0.009  0.003  0.000  0.012
   22  0.008  0.002  0.000  0.010
   23  0.009  0.003  0.000  0.012
   24  0.008  0.002  0.000  0.010
   25  0.007  0.002  0.000  0.010
   26  0.007  0.002  0.000  0.010
   27  0.008  0.002  0.000  0.010
   28  0.017  0.001  0.001  0.018
   29  0.019  0.001  0.001  0.020
   30  0.019  0.001  0.001  0.020
   31  0.019  0.001  0.001  0.020
   32  0.019  0.001  0.001  0.020
   33  0.019  0.001  0.001  0.020
   34  0.019  0.001  0.001  0.020
   35  0.016  0.001  0.001  0.017
   36  0.039  0.002  0.004  0.045
   37  0.002  0.001  0.000  0.002
tot    0.520  0.056  0.022  0.598
 
band     4 # energy   -6.00297841 # occ.  2.00000000
 
ion      s      p      d    tot
    1  0.011  0.000  0.003  0.014
    2  0.010  0.000  0.003  0.013
    3  0.010  0.000  0.003  0.013
    4  0.010  0.000  0.003  0.013
    5  0.003  0.000  0.004  0.007
    6  0.010  0.000  0.003  0.013
    7  0.010  0.000  0.003  0.013
    8  0.010  0.000  0.003  0.013
    9  0.019  0.000  0.002  0.021
   10  0.001  0.003  0.002  0.006
   11  0.009  0.005  0.001  0.014
   12  0.001  0.003  0.002  0.006
   13  0.009  0.005  0.001  0.014
   14  0.009  0.005  0.001  0.014
   15  0.001  0.002  0.003  0.005
   16  0.001  0.003  0.002  0.006
   17  0.001  0.002  0.003  0.005
   18  0.001  0.002  0.003  0.005
   19  0.001  0.002  0.006  0.009
   20  0.028  0.005  0.009  0.042
   21  0.028  0.005  0.009  0.042
   22  0.000  0.003  0.004  0.007
   23  0.028  0.005  0.009  0.042
   24  0.000  0.003  0.004  0.007
   25  0.001  0.002  0.006  0.009
   26  0.001  0.002  0.006  0.009
   27  0.000  0.003  0.004  0.007
   28  0.018  0.000  0.004  0.022
   29  0.015  0.000  0.007  0.023
   30  0.015  0.000  0.007  0.023
   31  0.015  0.000  0.007  0.023
   32  0.015  0.000  0.007  0.023
   33  0.015  0.000  0.007  0.023
   34  0.015  0.000  0.007  0.023
   35  0.024  0.000  0.004  0.028
   36  0.000  0.002  0.081  0.083
   37  0.002  0.030  0.000  0.031
tot    0.347  0.094  0.234  0.675
 
band     5 # energy   -5.86553994 # occ.  2.00000000
 
ion      s      p      d    tot
    1  0.002  0.000  0.002  0.004
    2  0.005  0.001  0.004  0.010
    3  0.005  0.001  0.004  0.010
    4  0.005  0.001  0.004  0.010
    5  0.028  0.001  0.001  0.030
    6  0.005  0.001  0.004  0.010
    7  0.005  0.001  0.004  0.010
    8  0.005  0.001  0.004  0.010
    9  0.000  0.001  0.004  0.005
   10  0.004  0.004  0.005  0.013
   11  0.008  0.005  0.004  0.017
   12  0.004  0.004  0.005  0.013
   13  0.008  0.005  0.004  0.017
   14  0.008  0.005  0.004  0.017
   15  0.016  0.002  0.005  0.023
   16  0.004  0.004  0.005  0.013
   17  0.016  0.002  0.005  0.023
   18  0.016  0.002  0.005  0.023
   19  0.020  0.001  0.008  0.029
   20  0.013  0.008  0.007  0.028
   21  0.013  0.008  0.007  0.028
   22  0.011  0.005  0.004  0.020
   23  0.013  0.008  0.007  0.028
   24  0.011  0.005  0.004  0.020
   25  0.020  0.001  0.008  0.028
   26  0.020  0.001  0.008  0.028
   27  0.011  0.005  0.004  0.020
   28  0.000  0.001  0.004  0.005
   29  0.004  0.002  0.007  0.012
   30  0.004  0.002  0.007  0.012
   31  0.004  0.002  0.007  0.012
   32  0.004  0.002  0.007  0.012
   33  0.004  0.002  0.007  0.012
   34  0.004  0.002  0.007  0.012
   35  0.000  0.001  0.002  0.003
   36  0.085  0.004  0.001  0.091
   37  0.005  0.022  0.000  0.027
tot    0.391  0.124  0.169  0.684
 
band     6 # energy   -5.85246926 # occ.  2.00000000
 
ion      s      p      d    tot
    1  0.000  0.002  0.004  0.006
    2  0.007  0.002  0.002  0.010
    3  0.001  0.001  0.001  0.003
    4  0.007  0.002  0.002  0.011
    5  0.000  0.002  0.003  0.005
    6  0.004  0.001  0.002  0.007
    7  0.000  0.001  0.001  0.003
    8  0.003  0.001  0.002  0.006
    9  0.000  0.000  0.002  0.002
   10  0.048  0.005  0.003  0.056
   11  0.006  0.009  0.005  0.020
   12  0.014  0.002  0.010  0.026
   13  0.009  0.008  0.005  0.022
   14  0.029  0.001  0.006  0.036
   15  0.000  0.005  0.005  0.011
   16  0.010  0.001  0.011  0.022
   17  0.001  0.005  0.005  0.010
   18  0.002  0.002  0.003  0.007
   19  0.004  0.011  0.002  0.017
   20  0.075  0.003  0.009  0.087
   21  0.023  0.003  0.017  0.043
   22  0.004  0.004  0.009  0.016
   23  0.015  0.003  0.018  0.036
   24  0.012  0.004  0.003  0.018
   25  0.019  0.000  0.007  0.026
   26  0.006  0.009  0.003  0.018
   27  0.002  0.004  0.009  0.015
   28  0.000  0.002  0.003  0.005
   29  0.010  0.003  0.005  0.018
   30  0.003  0.001  0.003  0.007
   31  0.010  0.003  0.005  0.018
   32  0.003  0.002  0.005  0.009
   33  0.002  0.001  0.003  0.006
   34  0.002  0.001  0.004  0.008
   35  0.000  0.000  0.003  0.003
   36  0.000  0.006  0.037  0.042
   37  0.000  0.006  0.000  0.006
tot    0.331  0.114  0.214  0.660
 
band     7 # energy   -5.85226852 # occ.  2.00000000
 
ion      s      p      d    tot
    1  0.000  0.002  0.004  0.006
    2  0.001  0.001  0.002  0.003
    3  0.006  0.002  0.002  0.010
    4  0.000  0.001  0.002  0.002
    5  0.000  0.002  0.003  0.005
    6  0.004  0.001  0.002  0.006
    7  0.007  0.002  0.002  0.011
    8  0.004  0.001  0.002  0.007
    9  0.000  0.000  0.002  0.002
   10  0.000  0.001  0.013  0.013
   11  0.023  0.003  0.006  0.032
   12  0.034  0.003  0.006  0.043
   13  0.021  0.004  0.005  0.030
   14  0.000  0.011  0.005  0.016
   15  0.002  0.003  0.004  0.008
   16  0.038  0.004  0.005  0.047
   17  0.001  0.003  0.004  0.008
   18  0.000  0.006  0.006  0.012
   19  0.015  0.003  0.005  0.024
   20  0.000  0.004  0.020  0.024
   21  0.053  0.003  0.012  0.068
   22  0.008  0.004  0.005  0.017
   23  0.060  0.003  0.011  0.074
   24  0.000  0.004  0.011  0.015
   25  0.000  0.013  0.001  0.015
   26  0.013  0.004  0.005  0.023
   27  0.009  0.004  0.004  0.017
   28  0.000  0.002  0.003  0.005
   29  0.000  0.001  0.003  0.004
   30  0.007  0.003  0.005  0.015
   31  0.000  0.001  0.003  0.004
   32  0.007  0.002  0.003  0.013
   33  0.008  0.003  0.005  0.016
   34  0.008  0.003  0.004  0.015
   35  0.000  0.000  0.003  0.003
   36  0.000  0.006  0.037  0.042
   37  0.000  0.006  0.000  0.006
tot    0.331  0.114  0.214  0.660
 
band     8 # energy   -5.75451263 # occ.  2.00000000
 
ion      s      p      d    tot
    1  0.000  0.001  0.002  0.003
    2  0.008  0.002  0.002  0.012
    3  0.001  0.001  0.002  0.004
    4  0.009  0.002  0.002  0.013
    5  0.000  0.001  0.004  0.004
    6  0.005  0.002  0.002  0.009
    7  0.000  0.001  0.002  0.003
    8  0.003  0.001  0.002  0.007
    9  0.000  0.003  0.005  0.008
   10  0.000  0.012  0.002  0.014
   11  0.021  0.003  0.004  0.028
   12  0.004  0.004  0.004  0.012
   13  0.017  0.003  0.006  0.026
   14  0.000  0.001  0.013  0.014
   15  0.045  0.003  0.006  0.054
   16  0.005  0.002  0.005  0.012
   17  0.036  0.004  0.006  0.046
   18  0.000  0.006  0.010  0.016
   19  0.036  0.004  0.005  0.044
   20  0.000  0.012  0.002  0.015
   21  0.000  0.005  0.005  0.010
   22  0.035  0.004  0.006  0.045
   23  0.000  0.003  0.005  0.009
   24  0.000  0.010  0.007  0.017
   25  0.000  0.000  0.017  0.018
   26  0.029  0.003  0.007  0.039
   27  0.043  0.003  0.006  0.052
   28  0.000  0.002  0.005  0.007
   29  0.013  0.003  0.003  0.020
   30  0.003  0.002  0.004  0.009
   31  0.014  0.003  0.003  0.020
   32  0.006  0.001  0.003  0.011
   33  0.001  0.002  0.004  0.007
   34  0.004  0.001  0.003  0.008
   35  0.000  0.004  0.005  0.009
   36  0.000  0.001  0.012  0.013
   37  0.000  0.000  0.000  0.000
tot    0.341  0.115  0.182  0.638
 
band     9 # energy   -5.75429090 # occ.  2.00000000
 
ion      s      p      d    tot
    1  0.000  0.001  0.002  0.003
    2  0.001  0.001  0.002  0.004
    3  0.008  0.002  0.002  0.012
    4  0.000  0.001  0.002  0.003
    5  0.000  0.001  0.004  0.004
    6  0.004  0.001  0.002  0.007
    7  0.009  0.002  0.002  0.013
    8  0.006  0.002  0.002  0.009
    9  0.000  0.003  0.005  0.008
   10  0.006  0.000  0.006  0.012
   11  0.004  0.001  0.011  0.017
   12  0.002  0.008  0.003  0.013
   13  0.009  0.002  0.010  0.020
   14  0.025  0.004  0.002  0.031
   15  0.009  0.005  0.009  0.024
   16  0.001  0.010  0.003  0.013
   17  0.018  0.005  0.008  0.031
   18  0.054  0.003  0.005  0.061
   19  0.008  0.001  0.015  0.023
   20  0.000  0.001  0.006  0.008
   21  0.000  0.009  0.004  0.012
   22  0.018  0.007  0.006  0.031
   23  0.000  0.011  0.003  0.014
   24  0.051  0.002  0.005  0.059
   25  0.043  0.005  0.002  0.050
   26  0.015  0.002  0.012  0.028
   27  0.009  0.008  0.006  0.024
   28  0.000  0.002  0.005  0.007
   29  0.001  0.001  0.004  0.005
   30  0.011  0.002  0.003  0.016
   31  0.000  0.001  0.004  0.005
   32  0.008  0.003  0.004  0.014
   33  0.013  0.002  0.003  0.018
   34  0.010  0.003  0.004  0.017
   35  0.000  0.004  0.005  0.009
   36  0.000  0.001  0.012  0.013
   37  0.000  0.000  0.000  0.000
tot    0.341  0.115  0.182  0.638
 
band    10 # energy   -5.73897445 # occ.  2.00000000
 
ion      s      p      d    tot
    1  0.023  0.003  0.001  0.027
    2  0.000  0.002  0.004  0.006
    3  0.000  0.002  0.004  0.006
    4  0.000  0.002  0.004  0.006
    5  0.000  0.000  0.001  0.001
    6  0.000  0.002  0.004  0.006
    7  0.000  0.002  0.004  0.006
    8  0.000  0.002  0.004  0.006
    9  0.008  0.002  0.001  0.010
   10  0.027  0.005  0.007  0.039
   11  0.005  0.000  0.011  0.016
   12  0.028  0.005  0.006  0.039
   13  0.005  0.000  0.011  0.016
   14  0.005  0.001  0.011  0.017
   15  0.014  0.008  0.003  0.025
   16  0.028  0.005  0.007  0.039
   17  0.014  0.008  0.003  0.025
   18  0.014  0.008  0.003  0.025
   19  0.019  0.009  0.002  0.030
   20  0.000  0.002  0.013  0.015
   21  0.000  0.002  0.013  0.015
   22  0.027  0.003  0.008  0.038
   23  0.000  0.002  0.013  0.015
   24  0.027  0.003  0.008  0.038
   25  0.019  0.009  0.002  0.030
   26  0.019  0.009  0.002  0.030
   27  0.027  0.003  0.008  0.038
   28  0.020  0.002  0.000  0.022
   29  0.000  0.002  0.004  0.006
   30  0.000  0.002  0.004  0.006
   31  0.000  0.002  0.004  0.006
   32  0.000  0.002  0.004  0.006
   33  0.000  0.002  0.004  0.006
   34  0.000  0.002  0.004  0.006
   35  0.011  0.002  0.002  0.015
   36  0.000  0.000  0.000  0.000
   37  0.000  0.000  0.000  0.000
tot    0.342  0.112  0.185  0.640
 
band    11 # energy   -5.25896323 # occ.  2.00000000
 
ion      s      p      d    tot
    1  0.012  0.000  0.003  0.015
    2  0.003  0.002  0.009  0.014
    3  0.003  0.002  0.009  0.014
    4  0.003  0.002  0.009  0.014
    5  0.011  0.004  0.006  0.021
    6  0.003  0.002  0.009  0.014
    7  0.003  0.002  0.009  0.014
    8  0.003  0.002  0.009  0.014
    9  0.026  0.001  0.001  0.028
   10  0.001  0.001  0.015  0.018
   11  0.028  0.004  0.005  0.037
   12  0.001  0.001  0.015  0.018
   13  0.028  0.004  0.005  0.037
   14  0.028  0.004  0.005  0.037
   15  0.002  0.001  0.014  0.018
   16  0.001  0.001  0.015  0.018
   17  0.002  0.001  0.014  0.018
   18  0.002  0.001  0.014  0.018
   19  0.000  0.000  0.002  0.002
   20  0.002  0.005  0.037  0.044
   21  0.001  0.005  0.037  0.044
   22  0.001  0.000  0.007  0.008
   23  0.001  0.005  0.037  0.044
   24  0.001  0.000  0.007  0.008
   25  0.000  0.000  0.002  0.002
   26  0.000  0.000  0.002  0.002
   27  0.001  0.000  0.007  0.008
   28  0.003  0.000  0.001  0.004
   29  0.001  0.000  0.001  0.002
   30  0.001  0.000  0.001  0.002
   31  0.001  0.000  0.001  0.002
   32  0.001  0.000  0.001  0.002
   33  0.001  0.000  0.001  0.002
   34  0.001  0.000  0.001  0.002
   35  0.001  0.000  0.000  0.002
   36  0.029  0.000  0.089  0.118
   37  0.008  0.108  0.000  0.116
tot    0.214  0.166  0.403  0.783
 
band    12 # energy   -5.10479318 # occ.  2.00000000
 
ion      s      p      d    tot
    1  0.000  0.000  0.008  0.008
    2  0.016  0.003  0.004  0.023
    3  0.010  0.002  0.004  0.016
    4  0.015  0.003  0.004  0.022
    5  0.000  0.003  0.007  0.010
    6  0.001  0.001  0.004  0.007
    7  0.008  0.002  0.004  0.013
    8  0.001  0.001  0.004  0.006
    9  0.000  0.004  0.007  0.012
   10  0.000  0.004  0.011  0.015
   11  0.017  0.003  0.007  0.027
   12  0.000  0.001  0.008  0.009
   13  0.015  0.002  0.008  0.026
   14  0.000  0.000  0.018  0.018
   15  0.015  0.002  0.007  0.023
   16  0.000  0.001  0.007  0.008
   17  0.013  0.002  0.008  0.023
   18  0.000  0.003  0.014  0.017
   19  0.003  0.002  0.008  0.013
   20  0.000  0.003  0.052  0.055
   21  0.002  0.001  0.022  0.025
   22  0.007  0.004  0.010  0.022
   23  0.002  0.001  0.017  0.021
   24  0.000  0.000  0.019  0.019
   25  0.000  0.000  0.005  0.006
   26  0.002  0.002  0.008  0.012
   27  0.008  0.005  0.009  0.022
   28  0.000  0.001  0.007  0.008
   29  0.019  0.003  0.009  0.032
   30  0.004  0.003  0.013  0.020
   31  0.020  0.003  0.008  0.032
   32  0.009  0.001  0.009  0.019
   33  0.002  0.003  0.013  0.018
   34  0.007  0.001  0.010  0.017
   35  0.000  0.004  0.005  0.009
   36  0.000  0.001  0.074  0.075
   37  0.000  0.022  0.000  0.022
tot    0.194  0.102  0.432  0.728
 
band    13 # energy   -5.10466466 # occ.  2.00000000
 
ion      s      p      d    tot
    1  0.000  0.000  0.008  0.008
    2  0.001  0.001  0.004  0.006
    3  0.007  0.002  0.004  0.013
    4  0.002  0.001  0.004  0.007
    5  0.000  0.003  0.007  0.010
    6  0.015  0.003  0.004  0.022
    7  0.009  0.002  0.004  0.015
    8  0.016  0.003  0.004  0.023
    9  0.000  0.004  0.007  0.012
   10  0.000  0.000  0.006  0.007
   11  0.004  0.001  0.015  0.020
   12  0.000  0.003  0.010  0.012
   13  0.007  0.001  0.014  0.021
   14  0.022  0.003  0.004  0.029
   15  0.004  0.003  0.012  0.019
   16  0.000  0.003  0.010  0.013
   17  0.006  0.003  0.011  0.020
   18  0.018  0.002  0.005  0.025
   19  0.001  0.001  0.006  0.008
   20  0.002  0.001  0.009  0.012
   21  0.001  0.002  0.039  0.042
   22  0.003  0.002  0.015  0.020
   23  0.000  0.003  0.043  0.046
   24  0.010  0.006  0.007  0.023
   25  0.003  0.003  0.009  0.015
   26  0.001  0.001  0.006  0.009
   27  0.002  0.001  0.017  0.020
   28  0.000  0.001  0.007  0.008
   29  0.001  0.001  0.012  0.014
   30  0.017  0.001  0.008  0.026
   31  0.000  0.001  0.013  0.014
   32  0.011  0.004  0.012  0.027
   33  0.018  0.002  0.008  0.028
   34  0.014  0.004  0.011  0.029
   35  0.000  0.004  0.005  0.009
   36  0.000  0.001  0.074  0.075
   37  0.000  0.022  0.000  0.022
tot    0.194  0.102  0.432  0.728
 
band    14 # energy   -5.06643307 # occ.  2.00000000
 
ion      s      p      d    tot
    1  0.001  0.002  0.008  0.011
    2  0.004  0.001  0.010  0.015
    3  0.004  0.001  0.010  0.015
    4  0.004  0.001  0.010  0.015
    5  0.032  0.000  0.004  0.036
    6  0.004  0.001  0.010  0.015
    7  0.004  0.001  0.010  0.015
    8  0.004  0.001  0.010  0.015
    9  0.002  0.001  0.008  0.010
   10  0.012  0.001  0.018  0.032
   11  0.000  0.002  0.019  0.021
   12  0.012  0.001  0.018  0.031
   13  0.000  0.002  0.019  0.021
   14  0.000  0.002  0.019  0.021
   15  0.010  0.000  0.020  0.029
   16  0.012  0.001  0.018  0.031
   17  0.010  0.000  0.020  0.029
   18  0.010  0.000  0.020  0.029
   19  0.011  0.002  0.013  0.026
   20  0.000  0.001  0.032  0.033
   21  0.000  0.001  0.032  0.033
   22  0.002  0.000  0.014  0.017
   23  0.000  0.001  0.032  0.033
   24  0.002  0.000  0.014  0.017
   25  0.011  0.002  0.013  0.026
   26  0.011  0.002  0.013  0.026
   27  0.002  0.000  0.014  0.017
   28  0.005  0.002  0.004  0.010
   29  0.001  0.002  0.011  0.014
   30  0.001  0.002  0.011  0.014
   31  0.001  0.002  0.011  0.014
   32  0.001  0.002  0.011  0.014
   33  0.001  0.002  0.011  0.014
   34  0.001  0.002  0.011  0.014
   35  0.000  0.001  0.003  0.003
   36  0.043  0.001  0.007  0.051
   37  0.001  0.002  0.000  0.003
tot    0.225  0.044  0.506  0.776
 
band    15 # energy   -5.04880731 # occ.  2.00000000
 
ion      s      p      d    tot
    1  0.000  0.006  0.009  0.016
    2  0.022  0.004  0.006  0.032
    3  0.011  0.003  0.005  0.020
    4  0.021  0.004  0.006  0.031
    5  0.000  0.003  0.011  0.015
    6  0.002  0.002  0.006  0.009
    7  0.011  0.003  0.005  0.019
    8  0.002  0.002  0.005  0.009
    9  0.000  0.000  0.011  0.012
   10  0.031  0.005  0.006  0.042
   11  0.002  0.004  0.016  0.022
   12  0.008  0.002  0.020  0.030
   13  0.002  0.004  0.016  0.022
   14  0.008  0.001  0.007  0.015
   15  0.002  0.002  0.014  0.018
   16  0.008  0.002  0.020  0.029
   17  0.002  0.002  0.014  0.018
   18  0.008  0.003  0.007  0.018
   19  0.002  0.001  0.018  0.021
   20  0.012  0.007  0.007  0.026
   21  0.003  0.002  0.014  0.019
   22  0.000  0.001  0.012  0.013
   23  0.003  0.002  0.014  0.019
   24  0.000  0.000  0.007  0.007
   25  0.007  0.003  0.003  0.013
   26  0.002  0.001  0.018  0.021
   27  0.000  0.001  0.012  0.013
   28  0.000  0.004  0.005  0.009
   29  0.014  0.004  0.008  0.026
   30  0.011  0.001  0.006  0.018
   31  0.014  0.004  0.008  0.025
   32  0.000  0.001  0.009  0.011
   33  0.011  0.001  0.006  0.018
   34  0.000  0.001  0.009  0.011
   35  0.000  0.001  0.008  0.009
   36  0.000  0.002  0.045  0.048
   37  0.000  0.013  0.000  0.013
tot    0.217  0.104  0.395  0.716
 
band    16 # energy   -5.04867906 # occ.  2.00000000
 
ion      s      p      d    tot
    1  0.000  0.006  0.009  0.016
    2  0.001  0.002  0.005  0.008
    3  0.012  0.003  0.006  0.020
    4  0.001  0.002  0.005  0.009
    5  0.000  0.003  0.011  0.015
    6  0.021  0.004  0.006  0.030
    7  0.012  0.003  0.006  0.021
    8  0.021  0.004  0.006  0.031
    9  0.000  0.000  0.011  0.012
   10  0.000  0.001  0.024  0.025
   11  0.006  0.002  0.010  0.017
   12  0.023  0.004  0.011  0.038
   13  0.006  0.002  0.010  0.017
   14  0.000  0.005  0.019  0.024
   15  0.006  0.002  0.010  0.018
   16  0.024  0.004  0.010  0.038
   17  0.006  0.002  0.010  0.018
   18  0.000  0.002  0.016  0.018
   19  0.005  0.003  0.008  0.016
   20  0.000  0.000  0.017  0.017
   21  0.009  0.005  0.010  0.023
   22  0.000  0.001  0.009  0.009
   23  0.009  0.005  0.010  0.024
   24  0.000  0.002  0.013  0.015
   25  0.000  0.001  0.023  0.024
   26  0.005  0.003  0.008  0.016
   27  0.000  0.000  0.008  0.009
   28  0.000  0.004  0.005  0.009
   29  0.003  0.001  0.007  0.010
   30  0.005  0.003  0.010  0.018
   31  0.003  0.001  0.007  0.011
   32  0.016  0.003  0.006  0.025
   33  0.006  0.003  0.010  0.018
   34  0.016  0.003  0.006  0.025
   35  0.000  0.001  0.008  0.009
   36  0.000  0.002  0.045  0.048
   37  0.000  0.013  0.000  0.013
tot    0.217  0.104  0.395  0.716
 
band    17 # energy   -4.98544006 # occ.  2.00000000
 
ion      s      p      d    tot
    1  0.030  0.002  0.000  0.033
    2  0.000  0.003  0.010  0.013
    3  0.000  0.003  0.010  0.013
    4  0.000  0.003  0.010  0.013
    5  0.002  0.000  0.001  0.003
    6  0.000  0.003  0.010  0.013
    7  0.000  0.003  0.010  0.013
    8  0.000  0.003  0.010  0.013
    9  0.029  0.004  0.002  0.035
   10  0.006  0.003  0.011  0.019
   11  0.001  0.000  0.017  0.018
   12  0.006  0.003  0.011  0.019
   13  0.001  0.000  0.017  0.018
   14  0.001  0.000  0.017  0.018
   15  0.010  0.004  0.015  0.030
   16  0.006  0.003  0.011  0.019
   17  0.010  0.004  0.015  0.030
   18  0.010  0.004  0.015  0.030
   19  0.002  0.003  0.018  0.023
   20  0.000  0.000  0.016  0.016
   21  0.000  0.000  0.016  0.016
   22  0.013  0.004  0.011  0.028
   23  0.000  0.000  0.016  0.016
   24  0.013  0.004  0.011  0.028
   25  0.002  0.003  0.018  0.023
   26  0.002  0.003  0.018  0.023
   27  0.013  0.004  0.011  0.028
   28  0.033  0.002  0.000  0.035
   29  0.000  0.003  0.011  0.014
   30  0.000  0.003  0.011  0.014
   31  0.000  0.003  0.011  0.014
   32  0.000  0.003  0.011  0.014
   33  0.000  0.003  0.011  0.014
   34  0.000  0.003  0.011  0.014
   35  0.028  0.004  0.002  0.033
   36  0.001  0.000  0.000  0.001
   37  0.000  0.000  0.000  0.000
tot    0.224  0.087  0.397  0.709
 
band    18 # energy   -4.78023314 # occ.  2.00000000
 
ion      s      p      d    tot
    1  0.000  0.000  0.002  0.002
    2  0.000  0.000  0.001  0.001
    3  0.001  0.000  0.001  0.001
    4  0.000  0.000  0.001  0.001
    5  0.000  0.000  0.001  0.001
    6  0.002  0.000  0.001  0.003
    7  0.001  0.000  0.001  0.002
    8  0.002  0.000  0.001  0.003
    9  0.000  0.001  0.001  0.002
   10  0.000  0.000  0.001  0.001
   11  0.000  0.000  0.002  0.002
   12  0.000  0.000  0.001  0.001
   13  0.000  0.000  0.002  0.002
   14  0.001  0.001  0.001  0.003
   15  0.000  0.000  0.004  0.004
   16  0.000  0.000  0.001  0.001
   17  0.000  0.000  0.003  0.004
   18  0.001  0.000  0.000  0.002
   19  0.000  0.002  0.008  0.010
   20  0.001  0.002  0.022  0.025
   21  0.000  0.001  0.007  0.008
   22  0.001  0.000  0.004  0.006
   23  0.000  0.000  0.005  0.005
   24  0.005  0.001  0.002  0.007
   25  0.000  0.000  0.001  0.002
   26  0.000  0.002  0.007  0.009
   27  0.001  0.000  0.004  0.006
   28  0.000  0.001  0.014  0.015
   29  0.016  0.002  0.011  0.028
   30  0.000  0.001  0.007  0.008
   31  0.018  0.002  0.011  0.032
   32  0.017  0.002  0.012  0.031
   33  0.000  0.001  0.007  0.008
   34  0.015  0.002  0.011  0.028
   35  0.000  0.001  0.013  0.014
   36  0.000  0.024  0.166  0.190
   37  0.000  0.284  0.000  0.284
tot    0.084  0.334  0.333  0.751
 
band    19 # energy   -4.78016405 # occ.  2.00000000
 
ion      s      p      d    tot
    1  0.000  0.000  0.002  0.002
    2  0.002  0.000  0.001  0.003
    3  0.001  0.000  0.001  0.002
    4  0.002  0.000  0.001  0.002
    5  0.000  0.000  0.001  0.001
    6  0.000  0.000  0.001  0.001
    7  0.001  0.000  0.001  0.002
    8  0.000  0.000  0.001  0.001
    9  0.000  0.001  0.001  0.002
   10  0.000  0.000  0.001  0.001
   11  0.001  0.001  0.001  0.003
   12  0.000  0.000  0.001  0.001
   13  0.000  0.001  0.001  0.002
   14  0.000  0.000  0.002  0.002
   15  0.001  0.000  0.001  0.002
   16  0.000  0.000  0.001  0.001
   17  0.001  0.000  0.001  0.002
   18  0.000  0.000  0.004  0.004
   19  0.000  0.000  0.003  0.004
   20  0.000  0.000  0.001  0.001
   21  0.001  0.001  0.016  0.018
   22  0.003  0.001  0.003  0.007
   23  0.001  0.001  0.018  0.021
   24  0.000  0.000  0.005  0.005
   25  0.000  0.002  0.009  0.012
   26  0.000  0.001  0.004  0.005
   27  0.004  0.001  0.003  0.007
   28  0.000  0.001  0.014  0.015
   29  0.006  0.002  0.009  0.017
   30  0.022  0.002  0.013  0.037
   31  0.004  0.002  0.008  0.014
   32  0.005  0.002  0.008  0.014
   33  0.022  0.002  0.013  0.037
   34  0.007  0.002  0.008  0.017
   35  0.000  0.001  0.013  0.014
   36  0.000  0.024  0.166  0.190
   37  0.000  0.284  0.000  0.284
tot    0.084  0.334  0.333  0.751
 
band    20 # energy   -4.61090674 # occ.  2.00000000
 
ion      s      p      d    tot
    1  0.009  0.000  0.001  0.010
    2  0.000  0.001  0.004  0.005
    3  0.000  0.001  0.004  0.005
    4  0.000  0.001  0.004  0.005
    5  0.009  0.001  0.001  0.011
    6  0.000  0.001  0.004  0.005
    7  0.000  0.001  0.004  0.005
    8  0.000  0.001  0.004  0.005
    9  0.001  0.000  0.001  0.002
   10  0.000  0.000  0.013  0.013
   11  0.001  0.002  0.015  0.019
   12  0.000  0.000  0.013  0.013
   13  0.001  0.002  0.015  0.019
   14  0.001  0.002  0.015  0.019
   15  0.000  0.000  0.004  0.004
   16  0.000  0.000  0.013  0.013
   17  0.000  0.000  0.004  0.004
   18  0.000  0.000  0.004  0.004
   19  0.000  0.000  0.012  0.013
   20  0.008  0.000  0.022  0.030
   21  0.008  0.000  0.022  0.030
   22  0.000  0.002  0.022  0.024
   23  0.008  0.000  0.022  0.030
   24  0.000  0.002  0.022  0.024
   25  0.000  0.000  0.012  0.013
   26  0.000  0.000  0.012  0.013
   27  0.000  0.002  0.022  0.024
   28  0.004  0.000  0.001  0.005
   29  0.000  0.003  0.017  0.019
   30  0.000  0.003  0.017  0.019
   31  0.000  0.003  0.017  0.019
   32  0.000  0.003  0.016  0.019
   33  0.000  0.003  0.017  0.019
   34  0.000  0.003  0.016  0.019
   35  0.025  0.001  0.004  0.029
   36  0.001  0.011  0.144  0.155
   37  0.009  0.181  0.000  0.190
tot    0.089  0.229  0.542  0.860
 
band    21 # energy   -4.47299817 # occ.  2.00000000
 
ion      s      p      d    tot
    1  0.000  0.001  0.024  0.024
    2  0.015  0.002  0.007  0.023
    3  0.008  0.001  0.007  0.016
    4  0.014  0.002  0.007  0.022
    5  0.000  0.001  0.010  0.011
    6  0.002  0.001  0.007  0.009
    7  0.007  0.001  0.007  0.014
    8  0.001  0.001  0.007  0.008
    9  0.000  0.003  0.005  0.008
   10  0.000  0.000  0.054  0.054
   11  0.000  0.004  0.015  0.018
   12  0.000  0.000  0.021  0.021
   13  0.000  0.003  0.013  0.017
   14  0.000  0.000  0.002  0.002
   15  0.000  0.005  0.013  0.018
   16  0.000  0.000  0.017  0.017
   17  0.000  0.004  0.015  0.019
   18  0.000  0.000  0.030  0.030
   19  0.007  0.002  0.010  0.019
   20  0.000  0.000  0.068  0.068
   21  0.000  0.000  0.036  0.037
   22  0.003  0.001  0.014  0.019
   23  0.000  0.000  0.033  0.033
   24  0.000  0.001  0.006  0.007
   25  0.000  0.000  0.022  0.022
   26  0.006  0.002  0.011  0.019
   27  0.003  0.002  0.015  0.020
   28  0.000  0.000  0.008  0.008
   29  0.008  0.001  0.023  0.031
   30  0.000  0.001  0.019  0.020
   31  0.008  0.001  0.023  0.032
   32  0.007  0.000  0.021  0.028
   33  0.000  0.001  0.019  0.020
   34  0.006  0.000  0.021  0.027
   35  0.000  0.001  0.003  0.004
   36  0.000  0.000  0.068  0.069