 vasp.6.2.0 18Jan21 (build Jun 12 2021 23:27:24) complex                        
  
 executed on             LinuxIFC date 2022.05.26  20:14:56
 running on   28 total cores
 distrk:  each k-point on   28 cores,    1 groups
 distr:  one band on NCORE=   1 cores,   28 groups


--------------------------------------------------------------------------------------------------------


 INCAR:
   ISMEAR = -5
   SIGMA = 0.1
   ISPIN = 1
   EDIFF = 1.d-5
   EDIFFG = -0.01
   NSW = 0
   NELM = 150
   ENCUT = 500
   ISIF = 2
   IBRION = 2
   LREAL = Auto
   ALGO = Fast
   ICHARG = 11
   LORBIT = 10
   LCHARG = .F.
   LWAVE = .F.

 POTCAR:    PAW_PBE Au 04Oct2007                  
 POTCAR:    PAW_PBE Pd 04Jan2005                  
 -----------------------------------------------------------------------------
|                                                                             |
|           W    W    AA    RRRRR   N    N  II  N    N   GGGG   !!!           |
|           W    W   A  A   R    R  NN   N  II  NN   N  G    G  !!!           |
|           W    W  A    A  R    R  N N  N  II  N N  N  G       !!!           |
|           W WW W  AAAAAA  RRRRR   N  N N  II  N  N N  G  GGG   !            |
|           WW  WW  A    A  R   R   N   NN  II  N   NN  G    G                |
|           W    W  A    A  R    R  N    N  II  N    N   GGGG   !!!           |
|                                                                             |
|     For optimal performance we recommend to set                             |
|       NCORE = 2 up to number-of-cores-per-socket                            |
|     NCORE specifies how many cores store one orbital (NPAR=cpu/NCORE).      |
|     This setting can greatly improve the performance of VASP for DFT.       |
|     The default, NCORE=1 might be grossly inefficient on modern             |
|     multi-core architectures or massively parallel machines. Do your        |
|     own testing! More info at https://www.vasp.at/wiki/index.php/NCORE      |
|     Unfortunately you need to use the default for GW and RPA                |
|     calculations (for HF NCORE is supported but not extensively tested      |
|     yet).                                                                   |
|                                                                             |
 -----------------------------------------------------------------------------

 POTCAR:    PAW_PBE Au 04Oct2007                  
   VRHFIN =Au: s1d10                                                                                
   LEXCH  = PE                                                                                      
   EATOM  =   926.0867 eV,   68.0654 Ry                                                             
                                                                                                    
   TITEL  = PAW_PBE Au 04Oct2007                                                                    
   LULTRA =        F    use ultrasoft PP ?                                                          
   IUNSCR =        1    unscreen: 0-lin 1-nonlin 2-no                                               
   RPACOR =    2.330    partial core radius                                                         
   POMASS =  196.966; ZVAL   =   11.000    mass and valenz                                          
   RCORE  =    2.500    outmost cutoff radius                                                       
   RWIGS  =    2.840; RWIGS  =    1.503    wigner-seitz radius (au A)                               
   ENMAX  =  229.943; ENMIN  =  172.457 eV                                                          
   ICORE  =        3    local potential                                                             
   LCOR   =        T    correct aug charges                                                         
   LPAW   =        T    paw PP                                                                      
   EAUG   =  356.670                                                                                
   DEXC   =    0.000                                                                                
   RMAX   =    2.562    core radius for proj-oper                                                   
   RAUG   =    1.300    factor for augmentation sphere                                              
   RDEP   =    2.598    radius for radial grids                                                     
   RDEPT  =    2.193    core radius for aug-charge                                                  
                                                                                                    
   Atomic configuration                                                                             
   16 entries                                                                                       
     n  l   j            E        occ.                                                              
     1  0  0.50    -80748.5001   2.0000                                                             
     2  0  0.50    -14244.7466   2.0000                                                             
     2  1  1.50    -12310.9591   6.0000                                                             
     3  0  0.50     -3362.1768   2.0000                                                             
     3  1  1.50     -2801.5463   6.0000                                                             
     3  2  2.50     -2203.8206  10.0000                                                             
     4  0  0.50      -729.8168   2.0000                                                             
     4  1  1.50      -546.0527   6.0000                                                             
     4  2  2.50      -325.7302  10.0000                                                             
     4  3  3.50       -81.1472  14.0000                                                             
     5  0  0.50      -108.3201   2.0000                                                             
     5  1  1.50       -59.7479   6.0000                                                             
     5  2  2.50        -6.8783  10.0000                                                             
     6  0  0.50        -5.7602   1.0000                                                             
     6  1  1.50        -6.8029   0.0000                                                             
     5  3  2.50        -1.3606   0.0000                                                             
   Description                                                                                      
     l       E           TYP  RCUT    TYP  RCUT                                                     
     2     -6.8782861     23  2.500                                                                 
     2     -8.2388687     23  2.500                                                                 
     0     -5.7601759     23  2.500                                                                 
     0     -0.8493231     23  2.500                                                                 
     1     -2.7211652     23  2.500                                                                 
     1     27.2116520     23  2.500                                                                 
     3     -1.3605826     23  2.500                                                                 
  local pseudopotential read in
  partial core-charges read in
  partial kinetic energy density read in
  atomic valenz-charges read in
  non local Contribution for L=           2  read in
    real space projection operators read in
  non local Contribution for L=           2  read in
    real space projection operators read in
  non local Contribution for L=           0  read in
    real space projection operators read in
  non local Contribution for L=           0  read in
    real space projection operators read in
  non local Contribution for L=           1  read in
    real space projection operators read in
  non local Contribution for L=           1  read in
    real space projection operators read in
    PAW grid and wavefunctions read in
 
   number of l-projection  operators is LMAX  =           6
   number of lm-projection operators is LMMAX =          18
 
 POTCAR:    PAW_PBE Pd 04Jan2005                  
   VRHFIN =Pd : s1 d9                                                                               
   LEXCH  = PE                                                                                      
   EATOM  =   809.7530 eV,   59.5152 Ry                                                             
                                                                                                    
   TITEL  = PAW_PBE Pd 04Jan2005                                                                    
   LULTRA =        F    use ultrasoft PP ?                                                          
   IUNSCR =        1    unscreen: 0-lin 1-nonlin 2-no                                               
   RPACOR =    2.000    partial core radius                                                         
   POMASS =  106.420; ZVAL   =   10.000    mass and valenz                                          
   RCORE  =    2.600    outmost cutoff radius                                                       
   RWIGS  =    2.710; RWIGS  =    1.434    wigner-seitz radius (au A)                               
   ENMAX  =  250.925; ENMIN  =  188.194 eV                                                          
   ICORE  =        3    local potential                                                             
   LCOR   =        T    correct aug charges                                                         
   LPAW   =        T    paw PP                                                                      
   EAUG   =  416.230                                                                                
   DEXC   =    0.000                                                                                
   RMAX   =    2.653    core radius for proj-oper                                                   
   RAUG   =    1.300    factor for augmentation sphere                                              
   RDEP   =    2.734    radius for radial grids                                                     
   RDEPT  =    2.103    core radius for aug-charge                                                  
                                                                                                    
   Atomic configuration                                                                             
   12 entries                                                                                       
     n  l   j            E        occ.                                                              
     1  0  0.50    -24164.6631   2.0000                                                             
     2  0  0.50     -3530.9218   2.0000                                                             
     2  1  1.50     -3165.6822   6.0000                                                             
     3  0  0.50      -639.4577   2.0000                                                             
     3  1  1.50      -519.4532   6.0000                                                             
     3  2  2.50      -328.9757  10.0000                                                             
     4  0  0.50       -88.7014   2.0000                                                             
     4  1  1.50       -54.4540   6.0000                                                             
     4  2  2.50        -6.6878   9.0000                                                             
     5  0  0.50        -4.3543   1.0000                                                             
     5  1  0.50        -1.3606   0.0000                                                             
     4  3  2.50        -1.3606   0.0000                                                             
   Description                                                                                      
     l       E           TYP  RCUT    TYP  RCUT                                                     
     2     -6.6878251     23  2.400                                                                 
     2     -8.0484077     23  2.400                                                                 
     0     -4.3542939     23  2.400                                                                 
     0      4.3406793     23  2.400                                                                 
     1     -4.0817478     23  2.600                                                                 
     1     15.8380318     23  2.600                                                                 
     3     -4.0817478     23  2.400                                                                 
  local pseudopotential read in
  partial core-charges read in
  partial kinetic energy density read in
  atomic valenz-charges read in
  non local Contribution for L=           2  read in
    real space projection operators read in
  non local Contribution for L=           2  read in
    real space projection operators read in
  non local Contribution for L=           0  read in
    real space projection operators read in
  non local Contribution for L=           0  read in
    real space projection operators read in
  non local Contribution for L=           1  read in
    real space projection operators read in
  non local Contribution for L=           1  read in
    real space projection operators read in
    PAW grid and wavefunctions read in
 
   number of l-projection  operators is LMAX  =           6
   number of lm-projection operators is LMMAX =          18
 
 Optimization of the real space projectors (new method)

 maximal supplied QI-value         = 15.12
 optimisation between [QCUT,QGAM] = [ 11.34, 22.83] = [ 36.00,145.93] Ry 
 Optimized for a Real-space Cutoff    1.39 Angstroem

   l    n(q)    QCUT    max X(q) W(low)/X(q) W(high)/X(q)  e(spline) 
   2      9    11.338    60.898    0.39E-03    0.42E-03    0.21E-06
   2      9    11.338    58.894    0.40E-03    0.42E-03    0.22E-06
   0      9    11.338   109.617    0.13E-03    0.20E-04    0.13E-06
   0      9    11.338    75.026    0.13E-03    0.20E-04    0.13E-06
   1      9    11.338    16.344    0.33E-04    0.24E-03    0.18E-06
   1      9    11.338    10.160    0.26E-04    0.19E-03    0.15E-06
 Optimization of the real space projectors (new method)

 maximal supplied QI-value         = 14.36
 optimisation between [QCUT,QGAM] = [ 11.35, 22.84] = [ 36.05,146.02] Ry 
 Optimized for a Real-space Cutoff    1.47 Angstroem

   l    n(q)    QCUT    max X(q) W(low)/X(q) W(high)/X(q)  e(spline) 
   2      9    11.346    59.108    0.74E-04    0.81E-04    0.26E-06
   2      9    11.346    58.101    0.74E-04    0.83E-04    0.27E-06
   0     10    11.346   102.235    0.26E-04    0.31E-04    0.16E-06
   0     10    11.346    58.388    0.23E-04    0.29E-04    0.15E-06
   1     10    11.346    22.191    0.23E-03    0.26E-03    0.14E-06
   1     10    11.346    15.590    0.19E-03    0.22E-03    0.12E-06
  PAW_PBE Au 04Oct2007                  :
 energy of atom  1       EATOM= -926.0867
 kinetic energy error for atom=    0.0042 (will be added to EATOM!!)
  PAW_PBE Pd 04Jan2005                  :
 energy of atom  2       EATOM= -809.7530
 kinetic energy error for atom=    0.0049 (will be added to EATOM!!)
 
 
 POSCAR: Au-Pd
  positions in direct lattice
  velocities in cartesian coordinates
 exchange correlation table for  LEXCH =        8
   RHO(1)=    0.500       N(1)  =     2000
   RHO(2)=  100.500       N(2)  =     4000

 VTST: version 3.2, (02/03/18)

 CHAIN: initializing optimizer
 
 OPT: Using VASP Conjugate-Gradient optimizer
 CHAIN: Read ICHAIN            0
 
 POSCAR: Au-Pd
  positions in direct lattice
  velocities in cartesian coordinates
 


--------------------------------------------------------------------------------------------------------


 ion  position               nearest neighbor table
   1  0.000  0.000  0.238-  16 2.94  12 2.94   6 2.94   8 2.94   7 2.94   3 2.94  10 2.94   4 2.94
                             2 2.94
   2  0.333  0.000  0.238-   9 2.94  11 2.94  17 2.94  10 2.94   8 2.94   4 2.94   5 2.94   1 2.94
                             3 2.94
   3  0.667  0.000  0.238-   7 2.94  18 2.94  12 2.94   1 2.94  11 2.94   5 2.94   6 2.94   9 2.94
                             2 2.94
   4  0.000  0.333  0.238-  10 2.94   6 2.94   5 2.94  13 2.94   2 2.94  15 2.94   9 2.94   1 2.94
                             7 2.94
   5  0.333  0.333  0.238-  13 2.94   7 2.94  11 2.94   4 2.94   2 2.94  14 2.94   3 2.94   8 2.94
                             6 2.94
   6  0.667  0.333  0.238-  15 2.94  14 2.94   1 2.94  12 2.94   4 2.94   9 2.94   8 2.94   3 2.94
                             5 2.94
   7  0.000  0.667  0.238-  18 2.94   3 2.94  16 2.94   5 2.94   1 2.94  13 2.94   8 2.94   4 2.94
                             9 2.94
   8  0.333  0.667  0.238-   9 2.94  17 2.94   1 2.94   2 2.94  14 2.94  16 2.94   6 2.94   7 2.94
                             5 2.94
   9  0.667  0.667  0.238-   2 2.94   8 2.94  17 2.94   6 2.94  15 2.94   4 2.94   3 2.94  18 2.94
                             7 2.94
  10  0.111  0.111  0.346-  26 2.92  19 2.92  20 2.93  11 2.94  17 2.94   2 2.94   4 2.94   1 2.94
                            12 2.94  16 2.94  13 2.94  15 2.94
  11  0.444  0.111  0.346-  27 2.93  20 2.93  21 2.93  13 2.94   2 2.94  10 2.94  17 2.94   5 2.94
                             3 2.94  18 2.94  14 2.94  12 2.94
  12  0.778  0.111  0.346-  25 2.92  19 2.92  21 2.93  16 2.94  18 2.94   1 2.94  14 2.94  15 2.94
                             3 2.94   6 2.94  10 2.94  11 2.94
  13  0.111  0.444  0.346-  22 2.93  23 2.93  20 2.93   5 2.94  18 2.94  11 2.94   7 2.94   4 2.94
                            16 2.94  10 2.94  14 2.94  15 2.94
  14  0.444  0.444  0.346-  24 2.93  21 2.93  23 2.93  15 2.94   6 2.94  12 2.94   8 2.94  17 2.94
                             5 2.94  16 2.94  13 2.94  11 2.94
  15  0.778  0.444  0.346-  19 2.93  24 2.93  22 2.93  14 2.94   6 2.94  17 2.94  12 2.94   9 2.94
                             4 2.94  10 2.94  13 2.94  18 2.94
  16  0.111  0.778  0.346-  25 2.92  26 2.92  23 2.93  18 2.94  12 2.94   7 2.94   1 2.94   8 2.94
                            13 2.94  10 2.94  14 2.94  17 2.94
  17  0.444  0.778  0.346-  26 2.93  27 2.93  24 2.93   9 2.94  15 2.94   2 2.94  10 2.94  11 2.94
                             8 2.94  14 2.94  16 2.94  18 2.94
  18  0.778  0.778  0.346-  25 2.93  22 2.93  27 2.93  16 2.94   7 2.94  13 2.94  12 2.94   3 2.94
                            11 2.94   9 2.94  15 2.94  17 2.94
  19  0.889  0.222  0.453-  10 2.92  12 2.92  15 2.93  26 2.93  25 2.93  21 2.94  20 2.94  24 2.94
                            22 2.94  28 2.96  32 2.97  31 2.97
  20  0.222  0.222  0.454-  36 2.83  10 2.93  11 2.93  13 2.93  26 2.94  19 2.94  27 2.94  22 2.94
                            23 2.94  21 2.94  29 2.95  31 2.95
  21  0.556  0.222  0.454-  36 2.83  12 2.93  14 2.93  11 2.93  25 2.94  19 2.94  24 2.94  27 2.94
                            20 2.94  23 2.94  30 2.95  32 2.95
  22  0.889  0.556  0.454-  18 2.93  15 2.93  13 2.93  24 2.94  27 2.94  23 2.94  20 2.94  25 2.94
                            19 2.94  33 2.96  31 2.96  35 2.96
  23  0.222  0.556  0.454-  36 2.83  16 2.93  13 2.93  14 2.93  25 2.94  26 2.94  22 2.94  24 2.94
                            20 2.94  21 2.94  33 2.95  34 2.95
  24  0.556  0.556  0.454-  15 2.93  17 2.93  14 2.93  27 2.94  22 2.94  21 2.94  23 2.94  26 2.94
                            19 2.94  32 2.96  34 2.96  35 2.96
  25  0.889  0.889  0.453-  16 2.92  12 2.92  18 2.93  19 2.93  26 2.93  23 2.94  21 2.94  22 2.94
                            27 2.94  28 2.96  33 2.97  30 2.97
  26  0.222  0.889  0.453-  10 2.92  16 2.92  17 2.93  19 2.93  25 2.93  20 2.94  23 2.94  27 2.94
                            24 2.94  28 2.96  29 2.97  34 2.97
  27  0.556  0.889  0.454-  17 2.93  18 2.93  11 2.93  24 2.94  22 2.94  20 2.94  21 2.94  26 2.94
                            25 2.94  29 2.96  30 2.96  35 2.96
  28  0.000  0.000  0.563-  34 2.94  32 2.94  33 2.94  30 2.94  31 2.94  29 2.94  25 2.96  19 2.96
                            26 2.96
  29  0.333  0.001  0.563-  30 2.93  31 2.93  36 2.93  35 2.94  28 2.94  20 2.95  34 2.95  27 2.96
                            26 2.97
  30  0.666  0.001  0.563-  29 2.93  32 2.93  36 2.93  35 2.94  28 2.94  21 2.95  33 2.95  27 2.96
                            25 2.97
  31  0.001  0.333  0.563-  33 2.93  29 2.93  36 2.93  35 2.94  28 2.94  20 2.95  32 2.95  22 2.96
                            19 2.97
  32  0.666  0.333  0.563-  34 2.93  30 2.93  36 2.93  35 2.94  28 2.94  21 2.95  31 2.95  24 2.96
                            19 2.97
  33  0.001  0.666  0.563-  31 2.93  34 2.93  36 2.93  35 2.94  28 2.94  23 2.95  30 2.95  22 2.96
                            25 2.97
  34  0.333  0.666  0.563-  32 2.93  33 2.93  36 2.93  35 2.94  28 2.94  23 2.95  29 2.95  24 2.96
                            26 2.97
  35  0.667  0.667  0.563-  29 2.94  34 2.94  32 2.94  31 2.94  30 2.94  33 2.94  24 2.96  27 2.96
                            22 2.96
  36  0.333  0.333  0.556-  20 2.83  23 2.83  21 2.83  33 2.93  31 2.93  29 2.93  30 2.93  34 2.93
                            32 2.93
 
  LATTYP: Found a hexagonal cell.
 ALAT       =     8.8135128021
 C/A-ratio  =     2.5184286595
  
  Lattice vectors:
  
 A1 = (  -4.4067569092,  -7.6327256898,   0.0000000000)
 A2 = (   8.8135128021,   0.0000000000,   0.0000000000)
 A3 = (   0.0000000000,   0.0000000000,  22.1962032318)


Analysis of symmetry for initial positions (statically):
=====================================================================
 Subroutine PRICEL returns:
 Original cell was already a primitive cell.
 

 Routine SETGRP: Setting up the symmetry group for a 
 hexagonal supercell.


 Subroutine GETGRP returns: Found  6 space group operations
 (whereof  6 operations were pure point group operations)
 out of a pool of 24 trial point group operations.


The static configuration has the point symmetry C_3v.


Analysis of symmetry for dynamics (positions and initial velocities):
=====================================================================
 Subroutine PRICEL returns:
 Original cell was already a primitive cell.
 

 Routine SETGRP: Setting up the symmetry group for a 
 hexagonal supercell.


 Subroutine GETGRP returns: Found  6 space group operations
 (whereof  6 operations were pure point group operations)
 out of a pool of 24 trial point group operations.


The dynamic configuration has the point symmetry C_3v.


Analysis of constrained symmetry for selective dynamics:
=====================================================================
 Subroutine PRICEL returns:
 Original cell was already a primitive cell.
 

 Routine SETGRP: Setting up the symmetry group for a 
 hexagonal supercell.


 Subroutine GETGRP returns: Found  6 space group operations
 (whereof  6 operations were pure point group operations)
 out of a pool of 24 trial point group operations.


The constrained configuration has the point symmetry C_3v.


 Subroutine INISYM returns: Found  6 space group operations
 (whereof  6 operations are pure point group operations),
 and found     1 'primitive' translations


----------------------------------------------------------------------------------------

                                     Primitive cell                                     

  volume of cell :    1493.1636

  direct lattice vectors                    reciprocal lattice vectors
     8.813512802  0.000000000  0.000000000     0.113462137 -0.065507406  0.000000000
     4.406756909  7.632725690  0.000000000     0.000000000  0.131014796  0.000000000
     0.000000000  0.000000000 22.196203232     0.000000000  0.000000000  0.045052750

  length of vectors
     8.813512802  8.813512802 22.196203232     0.131014796  0.131014796  0.045052750

  position of ions in fractional coordinates (direct lattice)
     0.000000000  0.000000000  0.237895638
     0.333333343  0.000000000  0.237895638
     0.666666687  0.000000000  0.237895638
     1.000000000  0.333333343  0.237895638
     0.333333313  0.333333343  0.237895638
     0.666666687  0.333333343  0.237895638
     1.000000000  0.666666687  0.237895638
     0.333333343  0.666666687  0.237895638
     0.666666627  0.666666687  0.237895638
     0.111111119  0.111111112  0.345965207
     0.444444418  0.111111112  0.345965207
     0.777777791  0.111111112  0.345965207
     0.111111127  0.444444448  0.345965207
     0.444444478  0.444444448  0.345965207
     0.777777731  0.444444448  0.345965207
     0.111111090  0.777777791  0.345965207
     0.444444448  0.777777791  0.345965207
     0.777777851  0.777777791  0.345965207
     0.889096781  0.221806453  0.453357195
     0.222138768  0.222138753  0.453714540
     0.555722525  0.222138753  0.453714540
     0.888823131  0.555588464  0.453709920
     0.222138723  0.555722525  0.453714540
     0.555588464  0.555588464  0.453709920
     0.889096781  0.889096781  0.453357195
     0.221806483  0.889096781  0.453357195
     0.555588404  0.888823131  0.453709920
     0.000000000  0.000000000  0.562870395
     0.333446929  0.000866645  0.562779507
     0.665686455  0.000866645  0.562779507
     0.000866645  0.333446929  0.562779507
     0.665686455  0.333446929  0.562779507
     0.000866645  0.665686455  0.562779507
     0.333446929  0.665686455  0.562779507
     0.666666627  0.666666687  0.563059468
     0.333333313  0.333333343  0.555992141

  ion indices of the primitive-cell ions
   primitive index   ion index
                 1           1
                 2           2
                 3           3
                 4           4
                 5           5
                 6           6
                 7           7
                 8           8
                 9           9
                10          10
                11          11
                12          12
                13          13
                14          14
                15          15
                16          16
                17          17
                18          18
                19          19
                20          20
                21          21
                22          22
                23          23
                24          24
                25          25
                26          26
                27          27
                28          28
                29          29
                30          30
                31          31
                32          32
                33          33
                34          34
                35          35
                36          36

----------------------------------------------------------------------------------------

 
 
 KPOINTS: Automatic mesh                          

Automatic generation of k-mesh.
 Grid dimensions read from file:
 generate k-points for:    8    8    1

 Generating k-lattice:

  Cartesian coordinates                     Fractional coordinates (reciprocal lattice)
     0.014182767 -0.008188426  0.000000000     0.125000000 -0.000000000  0.000000000
     0.000000000  0.016376850  0.000000000     0.000000000  0.125000000  0.000000000
     0.000000000  0.000000000  0.045052750     0.000000000  0.000000000  1.000000000

  Length of vectors
     0.016376850  0.016376850  0.045052750

  Shift w.r.t. Gamma in fractional coordinates (k-lattice)
     0.000000000  0.000000000  0.000000000

 TETIRR: Found     36 inequivalent tetrahedra from      384
 
 Subroutine IBZKPT returns following result:
 ===========================================
 
 Found     10 irreducible k-points:
 
 Following reciprocal coordinates:
            Coordinates               Weight
  0.000000  0.000000  0.000000      1.000000
  0.125000 -0.000000  0.000000      6.000000
  0.250000 -0.000000  0.000000      6.000000
  0.375000  0.000000  0.000000      6.000000
  0.500000 -0.000000  0.000000      3.000000
  0.250000  0.125000  0.000000      6.000000
  0.375000  0.125000  0.000000     12.000000
  0.500000  0.125000  0.000000     12.000000
  0.500000  0.250000  0.000000      6.000000
 -0.375000  0.250000  0.000000      6.000000
 
 Following cartesian coordinates:
            Coordinates               Weight
  0.000000  0.000000  0.000000      1.000000
  0.014183 -0.008188  0.000000      6.000000
  0.028366 -0.016377  0.000000      6.000000
  0.042548 -0.024565  0.000000      6.000000
  0.056731 -0.032754  0.000000      3.000000
  0.028366 -0.000000  0.000000      6.000000
  0.042548 -0.008188  0.000000     12.000000
  0.056731 -0.016377  0.000000     12.000000
  0.056731 -0.000000  0.000000      6.000000
 -0.042548  0.057319  0.000000      6.000000
 


--------------------------------------------------------------------------------------------------------




 Dimension of arrays:
   k-points           NKPTS =     10   k-points in BZ     NKDIM =     10   number of bands    NBANDS=    252
   number of dos      NEDOS =    301   number of ions     NIONS =     36
   non local maximal  LDIM  =      6   non local SUM 2l+1 LMDIM =     18
   total plane-waves  NPLWV = 290304
   max r-space proj   IRMAX =   2660   max aug-charges    IRDMAX=  12088
   dimension x,y,z NGX =    48 NGY =   48 NGZ =  126
   dimension x,y,z NGXF=    96 NGYF=   96 NGZF=  252
   support grid    NGXF=    96 NGYF=   96 NGZF=  252
   ions per type =              35   1
   NGX,Y,Z   is equivalent  to a cutoff of   9.05,  9.05,  9.44 a.u.
   NGXF,Y,Z  is equivalent  to a cutoff of  18.11, 18.11, 18.87 a.u.

 SYSTEM =  unknown system                          
 POSCAR =  Au-Pd                                   

 Startparameter for this run:
   NWRITE =      2    write-flag & timer
   PREC   = normal    normal or accurate (medium, high low for compatibility)
   ISTART =      0    job   : 0-new  1-cont  2-samecut
   ICHARG =     11    charge: 1-file 2-atom 10-const
   ISPIN  =      1    spin polarized calculation?
   LNONCOLLINEAR =      F non collinear calculations
   LSORBIT =      F    spin-orbit coupling
   INIWAV =      1    electr: 0-lowe 1-rand  2-diag
   LASPH  =      F    aspherical Exc in radial PAW
   METAGGA=      F    non-selfconsistent MetaGGA calc.

 Electronic Relaxation 1
   ENCUT  =  500.0 eV  36.75 Ry    6.06 a.u.  16.07 16.07 40.47*2*pi/ulx,y,z
   ENINI  =  500.0     initial cutoff
   ENAUG  =  416.2 eV  augmentation charge cutoff
   NELM   =    150;   NELMIN=  2; NELMDL= -5     # of ELM steps 
   EDIFF  = 0.1E-04   stopping-criterion for ELM
   LREAL  =      T    real-space projection
   NLSPLINE    = F    spline interpolate recip. space projectors
   LCOMPAT=      F    compatible to vasp.4.4
   GGA_COMPAT  = T    GGA compatible to vasp.4.4-vasp.4.6
   LMAXPAW     = -100 max onsite density
   LMAXMIX     =    2 max onsite mixed and CHGCAR
   VOSKOWN=      0    Vosko Wilk Nusair interpolation
   ROPT   =   -0.00050  -0.00050
 Ionic relaxation
   EDIFFG = -.1E-01   stopping-criterion for IOM
   NSW    =      0    number of steps for IOM
   NBLOCK =      1;   KBLOCK =      1    inner block; outer block 
   IBRION =     -1    ionic relax: 0-MD 1-quasi-New 2-CG
   NFREE  =      1    steps in history (QN), initial steepest desc. (CG)
   ISIF   =      2    stress and relaxation
   IWAVPR =     10    prediction:  0-non 1-charg 2-wave 3-comb
   ISYM   =      2    0-nonsym 1-usesym 2-fastsym
   LCORR  =      T    Harris-Foulkes like correction to forces

   POTIM  = 0.5000    time-step for ionic-motion
   TEIN   =    0.0    initial temperature
   TEBEG  =    0.0;   TEEND  =   0.0 temperature during run
   SMASS  =  -3.00    Nose mass-parameter (am)
   estimated Nose-frequenzy (Omega)   =  0.10E-29 period in steps = 0.13E+47 mass=  -0.178E-26a.u.
   SCALEE = 1.0000    scale energy and forces
   NPACO  =    256;   APACO  = 16.0  distance and # of slots for P.C.
   PSTRESS=    0.0 pullay stress

  Mass of Ions in am
   POMASS = 196.97106.42
  Ionic Valenz
   ZVAL   =  11.00 10.00
  Atomic Wigner-Seitz radii
   RWIGS  =  -1.00 -1.00
  virtual crystal weights 
   VCA    =   1.00  1.00
   NELECT =     395.0000    total number of electrons
   NUPDOWN=      -1.0000    fix difference up-down

 DOS related values:
   EMIN   =  10.00;   EMAX   =-10.00  energy-range for DOS
   EFERMI =   0.00
   ISMEAR =    -5;   SIGMA  =   0.10  broadening in eV -4-tet -1-fermi 0-gaus

 Electronic relaxation 2 (details)
   IALGO  =     68    algorithm
   LDIAG  =      T    sub-space diagonalisation (order eigenvalues)
   LSUBROT=      F    optimize rotation matrix (better conditioning)
   TURBO    =      0    0=normal 1=particle mesh
   IRESTART =      0    0=no restart 2=restart with 2 vectors
   NREBOOT  =      0    no. of reboots
   NMIN     =      0    reboot dimension
   EREF     =   0.00    reference energy to select bands
   IMIX   =      4    mixing-type and parameters
     AMIX     =   0.40;   BMIX     =  1.00
     AMIX_MAG =   1.60;   BMIX_MAG =  1.00
     AMIN     =   0.10
     WC   =   100.;   INIMIX=   1;  MIXPRE=   1;  MAXMIX= -45

 Intra band minimization:
   WEIMIN = 0.0000     energy-eigenvalue tresh-hold
   EBREAK =  0.99E-08  absolut break condition
   DEPER  =   0.30     relativ break condition  

   TIME   =   0.40     timestep for ELM

  volume/ion in A,a.u.               =      41.48       279.90
  Fermi-wavevector in a.u.,A,eV,Ry     =   1.050924  1.985959 15.026842  1.104442
  Thomas-Fermi vector in A             =   2.185947
 
 Write flags
   LWAVE        =      F    write WAVECAR
   LDOWNSAMPLE  =      F    k-point downsampling of WAVECAR
   LCHARG       =      F    write CHGCAR
   LVTOT        =      F    write LOCPOT, total local potential
   LVHAR        =      F    write LOCPOT, Hartree potential only
   LELF         =      F    write electronic localiz. function (ELF)
   LORBIT       =     10    0 simple, 1 ext, 2 COOP (PROOUT), +10 PAW based schemes


 Dipole corrections
   LMONO  =      F    monopole corrections only (constant potential shift)
   LDIPOL =      F    correct potential (dipole corrections)
   IDIPOL =      0    1-x, 2-y, 3-z, 4-all directions 
   EPSILON=  1.0000000 bulk dielectric constant

 Exchange correlation treatment:
   GGA     =    --    GGA type
   LEXCH   =     8    internal setting for exchange type
   VOSKOWN=      0    Vosko Wilk Nusair interpolation
   LHFCALC =     F    Hartree Fock is set to
   LHFONE  =     F    Hartree Fock one center treatment
   AEXX    =    0.0000 exact exchange contribution

 Linear response parameters
   LEPSILON=     F    determine dielectric tensor
   LRPA    =     F    only Hartree local field effects (RPA)
   LNABLA  =     F    use nabla operator in PAW spheres
   LVEL    =     F    velocity operator in full k-point grid
   LINTERFAST=   F  fast interpolation
   KINTER  =     0    interpolate to denser k-point grid
   CSHIFT  =0.1000    complex shift for real part using Kramers Kronig
   OMEGAMAX=  -1.0    maximum frequency
   DEG_THRESHOLD= 0.2000000E-02 threshold for treating states as degnerate
   RTIME   =   -0.100 relaxation time in fs
  (WPLASMAI=    0.000 imaginary part of plasma frequency in eV, 0.658/RTIME)
   DFIELD  = 0.0000000 0.0000000 0.0000000 field for delta impulse in time
 
 Orbital magnetization related:
   ORBITALMAG=     F  switch on orbital magnetization
   LCHIMAG   =     F  perturbation theory with respect to B field
   DQ        =  0.001000  dq finite difference perturbation B field
   LLRAUG    =     F  two centre corrections for induced B field



--------------------------------------------------------------------------------------------------------


 Static calculation
 charge density and potential remain constant during run
 non-spin polarized calculation
 RMM-DIIS sequential band-by-band and
  variant of blocked Davidson during initial phase
 perform sub-space diagonalisation
    before iterative eigenvector-optimisation
 no mixing
 using additional bands           54
 real space projection scheme for non local part
 use partial core corrections
 calculate Harris-corrections to forces 
   (improved forces if not selfconsistent)
 use gradient corrections 
 WARNING: stress and forces are not correct
  (second derivative of E(xc) not defined)
 use of overlap-Matrix (Vanderbilt PP)
 Fermi weights with tetrahedron method with Bloechl corrections


--------------------------------------------------------------------------------------------------------


  energy-cutoff  :      500.00
  volume of cell :     1493.16
      direct lattice vectors                 reciprocal lattice vectors
     8.813512802  0.000000000  0.000000000     0.113462137 -0.065507406  0.000000000
     4.406756909  7.632725690  0.000000000     0.000000000  0.131014796  0.000000000
     0.000000000  0.000000000 22.196203232     0.000000000  0.000000000  0.045052750

  length of vectors
     8.813512802  8.813512802 22.196203232     0.131014796  0.131014796  0.045052750


 
 k-points in units of 2pi/SCALE and weight: Automatic mesh                          
   0.00000000  0.00000000  0.00000000       0.016
   0.01418277 -0.00818843  0.00000000       0.094
   0.02836553 -0.01637685  0.00000000       0.094
   0.04254830 -0.02456528  0.00000000       0.094
   0.05673107 -0.03275370  0.00000000       0.047
   0.02836553 -0.00000000  0.00000000       0.094
   0.04254830 -0.00818843  0.00000000       0.188
   0.05673107 -0.01637685  0.00000000       0.188
   0.05673107 -0.00000000  0.00000000       0.094
  -0.04254830  0.05731898  0.00000000       0.094
 
 k-points in reciprocal lattice and weights: Automatic mesh                          
   0.00000000  0.00000000  0.00000000       0.016
   0.12500000 -0.00000000  0.00000000       0.094
   0.25000000 -0.00000000  0.00000000       0.094
   0.37500000  0.00000000  0.00000000       0.094
   0.50000000 -0.00000000  0.00000000       0.047
   0.25000000  0.12500000  0.00000000       0.094
   0.37500000  0.12500000  0.00000000       0.188
   0.50000000  0.12500000  0.00000000       0.188
   0.50000000  0.25000000  0.00000000       0.094
  -0.37500000  0.25000000  0.00000000       0.094
 
 position of ions in fractional coordinates (direct lattice) 
   0.00000000  0.00000000  0.23789564
   0.33333334  0.00000000  0.23789564
   0.66666669  0.00000000  0.23789564
   0.00000000  0.33333334  0.23789564
   0.33333331  0.33333334  0.23789564
   0.66666669  0.33333334  0.23789564
   0.00000000  0.66666669  0.23789564
   0.33333334  0.66666669  0.23789564
   0.66666663  0.66666669  0.23789564
   0.11111112  0.11111111  0.34596521
   0.44444442  0.11111111  0.34596521
   0.77777779  0.11111111  0.34596521
   0.11111113  0.44444445  0.34596521
   0.44444448  0.44444445  0.34596521
   0.77777773  0.44444445  0.34596521
   0.11111109  0.77777779  0.34596521
   0.44444445  0.77777779  0.34596521
   0.77777785  0.77777779  0.34596521
   0.88909678  0.22180645  0.45335719
   0.22213877  0.22213875  0.45371454
   0.55572252  0.22213875  0.45371454
   0.88882313  0.55558846  0.45370992
   0.22213872  0.55572252  0.45371454
   0.55558846  0.55558846  0.45370992
   0.88909678  0.88909678  0.45335719
   0.22180648  0.88909678  0.45335719
   0.55558840  0.88882313  0.45370992
   0.00000000  0.00000000  0.56287040
   0.33344693  0.00086665  0.56277951
   0.66568646  0.00086665  0.56277951
   0.00086665  0.33344693  0.56277951
   0.66568646  0.33344693  0.56277951
   0.00086665  0.66568646  0.56277951
   0.33344693  0.66568646  0.56277951
   0.66666663  0.66666669  0.56305947
   0.33333331  0.33333334  0.55599214
 
 position of ions in cartesian coordinates  (Angst):
   0.00000000  0.00000000  5.28037993
   2.93783769  0.00000000  5.28037993
   5.87567538  0.00000000  5.28037993
   1.46891901  2.54424197  5.28037993
   4.40675643  2.54424197  5.28037993
   7.34459439  2.54424197  5.28037993
   2.93783803  5.08848395  5.28037993
   5.87567571  5.08848395  5.28037993
   8.81351288  5.08848395  5.28037993
   1.46891893  0.84808064  7.67911405
   4.40675623  0.84808064  7.67911405
   7.34459418  0.84808064  7.67911405
   2.93783798  3.39232256  7.67911405
   5.87567574  3.39232256  7.67911405
   8.81351263  3.39232256  7.67911405
   4.40675667  5.93656453  7.67911405
   7.34459449  5.93656453  7.67911405
  10.28243270  5.93656453  7.67911405
   8.81351299  1.69298781 10.06280844
   2.93673436  1.69552416 10.07074015
   5.87677907  1.69552416 10.07074015
  10.28199735  4.24065435 10.07063759
   4.40675655  4.24167759 10.07074015
   7.34502935  4.24065435 10.07063759
  11.75409925  6.78623184 10.06280844
   5.87292766  6.78623184 10.06280844
   8.81351299  6.78414315 10.07063759
   0.00000000  0.00000000 12.49358568
   2.94265787  0.00661487 12.49156830
   5.87085519  0.00661487 12.49156830
   1.47705775  2.54510894 12.49156830
   7.33645566  2.54510894 12.49156830
   2.94115658  5.08100211 12.49156830
   5.87235717  5.08100211 12.49156830
   8.81351288  5.08848395 12.49778238
   4.40675643  2.54424197 12.34091456
 


--------------------------------------------------------------------------------------------------------


 k-point   1 :   0.0000 0.0000 0.0000  plane waves:   37827
 k-point   2 :   0.1250-0.0000 0.0000  plane waves:   37876
 k-point   3 :   0.2500-0.0000 0.0000  plane waves:   37924
 k-point   4 :   0.3750 0.0000 0.0000  plane waves:   37904
 k-point   5 :   0.5000-0.0000 0.0000  plane waves:   37912
 k-point   6 :   0.2500 0.1250 0.0000  plane waves:   37858
 k-point   7 :   0.3750 0.1250 0.0000  plane waves:   37928
 k-point   8 :   0.5000 0.1250 0.0000  plane waves:   37924
 k-point   9 :   0.5000 0.2500 0.0000  plane waves:   37926
 k-point  10 :  -0.3750 0.2500 0.0000  plane waves:   37916

 maximum and minimum number of plane-waves per node :     37928    37827

 maximum number of plane-waves:     37928
 maximum index in each direction: 
   IXMAX=   16   IYMAX=   16   IZMAX=   40
   IXMIN=  -16   IYMIN=  -16   IZMIN=  -40


 serial   3D FFT for wavefunctions
 parallel 3D FFT for charge:
    minimum data exchange during FFTs selected (reduces bandwidth)


 total amount of memory used by VASP MPI-rank0   121272. kBytes
=======================================================================

   base      :      30000. kBytes
   nonlr-proj:      13684. kBytes
   fftplans  :       4330. kBytes
   grid      :      17098. kBytes
   one-center:        559. kBytes
   wavefun   :      55601. kBytes
 
     INWAV:  cpu time    0.0000: real time    0.0001
 initial charge density was supplied:
 number of electron     395.0000021 magnetization 
 keeping initial charge density in first step


--------------------------------------------------------------------------------------------------------


 Maximum index for non-local projection operator         2513
 Maximum index for augmentation-charges          857 (set IRDMAX)


--------------------------------------------------------------------------------------------------------


 First call to EWALD:  gamma=   0.155
 Maximum number of real-space cells 4x 4x 2
 Maximum number of reciprocal cells 2x 2x 5

    FEWALD:  cpu time    0.0016: real time    0.0016


--------------------------------------- Iteration      1(   1)  ---------------------------------------


    POTLOK:  cpu time    0.0650: real time    0.0659
    SETDIJ:  cpu time    0.0063: real time    0.0065
     EDDAV:  cpu time   12.5103: real time   12.7110
 BZINTS: Fermi energy:   11.152797;  395.000000 electrons
         Band energy: 0.153205E+04;  BLOECHL correction:   -0.012869
       DOS:  cpu time    0.0109: real time    0.0110
    --------------------------------------------
      LOOP:  cpu time   12.5925: real time   12.7944

 eigenvalue-minimisations  :  5040
 total energy-change (2. order) : 0.2587343E+04  (-0.1789798E+05)
 number of electron     395.0000021 magnetization 
 augmentation part      395.0000021 magnetization 

 Free energy of the ion-electron system (eV)
  ---------------------------------------------------
  alpha Z        PSCENC =       997.66769865
  Ewald energy   TEWEN  =     96902.90643176
  -Hartree energ DENC   =   -131347.04392682
  -exchange      EXHF   =         0.00000000
  -V(xc)+E(xc)   XCENC  =       487.55792823
  PAW double counting   =     36033.99337635   -35242.42377488
  entropy T*S    EENTRO =         0.00000000
  eigenvalues    EBANDS =      1532.05139975
  atomic energy  EATOM  =     33222.63430607
  Solvation  Ediel_sol  =         0.00000000
  ---------------------------------------------------
  free energy    TOTEN  =      2587.34343912 eV

  energy without entropy =     2587.34343912  energy(sigma->0) =     2587.34343912


--------------------------------------------------------------------------------------------------------




--------------------------------------- Iteration      1(   2)  ---------------------------------------


     EDDAV:  cpu time   13.6913: real time   13.8131
 BZINTS: Fermi energy:    1.292326;  395.000000 electrons
         Band energy:-0.104615E+04;  BLOECHL correction:   -0.077312
       DOS:  cpu time    0.0106: real time    0.0107
    --------------------------------------------
      LOOP:  cpu time   13.7019: real time   13.8237

 eigenvalue-minimisations  :  5600
 total energy-change (2. order) :-0.2578200E+04  (-0.2372695E+04)
 number of electron     395.0000021 magnetization 
 augmentation part      395.0000021 magnetization 

 Free energy of the ion-electron system (eV)
  ---------------------------------------------------
  alpha Z        PSCENC =       997.66769865
  Ewald energy   TEWEN  =     96902.90643176
  -Hartree energ DENC   =   -131347.04392682
  -exchange      EXHF   =         0.00000000
  -V(xc)+E(xc)   XCENC  =       487.55792823
  PAW double counting   =     36033.99337635   -35242.42377488
  entropy T*S    EENTRO =         0.00000000
  eigenvalues    EBANDS =     -1046.14810561
  atomic energy  EATOM  =     33222.63430607
  Solvation  Ediel_sol  =         0.00000000
  ---------------------------------------------------
  free energy    TOTEN  =         9.14393376 eV

  energy without entropy =        9.14393376  energy(sigma->0) =        9.14393376


--------------------------------------------------------------------------------------------------------




--------------------------------------- Iteration      1(   3)  ---------------------------------------


     EDDAV:  cpu time   13.9568: real time   14.0251
 BZINTS: Fermi energy:    0.683762;  395.000000 electrons
         Band energy:-0.116502E+04;  BLOECHL correction:   -0.114239
       DOS:  cpu time    0.0105: real time    0.0106
    --------------------------------------------
      LOOP:  cpu time   13.9674: real time   14.0357

 eigenvalue-minimisations  :  5852
 total energy-change (2. order) :-0.1188768E+03  (-0.1150470E+03)
 number of electron     395.0000021 magnetization 
 augmentation part      395.0000021 magnetization 

 Free energy of the ion-electron system (eV)
  ---------------------------------------------------
  alpha Z        PSCENC =       997.66769865
  Ewald energy   TEWEN  =     96902.90643176
  -Hartree energ DENC   =   -131347.04392682
  -exchange      EXHF   =         0.00000000
  -V(xc)+E(xc)   XCENC  =       487.55792823
  PAW double counting   =     36033.99337635   -35242.42377488
  entropy T*S    EENTRO =         0.00000000
  eigenvalues    EBANDS =     -1165.02495433
  atomic energy  EATOM  =     33222.63430607
  Solvation  Ediel_sol  =         0.00000000
  ---------------------------------------------------
  free energy    TOTEN  =      -109.73291496 eV

  energy without entropy =     -109.73291496  energy(sigma->0) =     -109.73291496


--------------------------------------------------------------------------------------------------------




--------------------------------------- Iteration      1(   4)  ---------------------------------------


     EDDAV:  cpu time   14.0705: real time   14.1683
 BZINTS: Fermi energy:    0.670163;  395.000000 electrons
         Band energy:-0.116721E+04;  BLOECHL correction:   -0.115991
       DOS:  cpu time    0.0109: real time    0.0139
    --------------------------------------------
      LOOP:  cpu time   14.0814: real time   14.1822

 eigenvalue-minimisations  :  5992
 total energy-change (2. order) :-0.2182000E+01  (-0.2176835E+01)
 number of electron     395.0000021 magnetization 
 augmentation part      395.0000021 magnetization 

 Free energy of the ion-electron system (eV)
  ---------------------------------------------------
  alpha Z        PSCENC =       997.66769865
  Ewald energy   TEWEN  =     96902.90643176
  -Hartree energ DENC   =   -131347.04392682
  -exchange      EXHF   =         0.00000000
  -V(xc)+E(xc)   XCENC  =       487.55792823
  PAW double counting   =     36033.99337635   -35242.42377488
  entropy T*S    EENTRO =         0.00000000
  eigenvalues    EBANDS =     -1167.20695402
  atomic energy  EATOM  =     33222.63430607
  Solvation  Ediel_sol  =         0.00000000
  ---------------------------------------------------
  free energy    TOTEN  =      -111.91491465 eV

  energy without entropy =     -111.91491465  energy(sigma->0) =     -111.91491465


--------------------------------------------------------------------------------------------------------




--------------------------------------- Iteration      1(   5)  ---------------------------------------


     EDDAV:  cpu time   14.2260: real time   14.3714
 BZINTS: Fermi energy:    0.669840;  395.000000 electrons
         Band energy:-0.116726E+04;  BLOECHL correction:   -0.115803
       DOS:  cpu time    0.0116: real time    0.0116
    --------------------------------------------
      LOOP:  cpu time   14.2376: real time   14.3830

 eigenvalue-minimisations  :  6104
 total energy-change (2. order) :-0.4849112E-01  (-0.4864363E-01)
 number of electron     395.0000021 magnetization 
 augmentation part      395.0000021 magnetization 

 Free energy of the ion-electron system (eV)
  ---------------------------------------------------
  alpha Z        PSCENC =       997.66769865
  Ewald energy   TEWEN  =     96902.90643176
  -Hartree energ DENC   =   -131347.04392682
  -exchange      EXHF   =         0.00000000
  -V(xc)+E(xc)   XCENC  =       487.55792823
  PAW double counting   =     36033.99337635   -35242.42377488
  entropy T*S    EENTRO =         0.00000000
  eigenvalues    EBANDS =     -1167.25544514
  atomic energy  EATOM  =     33222.63430607
  Solvation  Ediel_sol  =         0.00000000
  ---------------------------------------------------
  free energy    TOTEN  =      -111.96340577 eV

  energy without entropy =     -111.96340577  energy(sigma->0) =     -111.96340577


--------------------------------------------------------------------------------------------------------




--------------------------------------- Iteration      1(   6)  ---------------------------------------


    EDDIAG:  cpu time    2.4019: real time    2.4123
  RMM-DIIS:  cpu time    6.8261: real time    6.9069
    ORTHCH:  cpu time    0.4106: real time    0.4130
 BZINTS: Fermi energy:    0.669832;  395.000000 electrons
         Band energy:-0.116726E+04;  BLOECHL correction:   -0.115791
       DOS:  cpu time    0.0124: real time    0.0125
    --------------------------------------------
      LOOP:  cpu time    9.6510: real time    9.7447

 eigenvalue-minimisations  :  4991
 total energy-change (2. order) :-0.1461157E-02  (-0.1472054E-02)
 number of electron     395.0000021 magnetization 
 augmentation part      395.0000021 magnetization 

 Free energy of the ion-electron system (eV)
  ---------------------------------------------------
  alpha Z        PSCENC =       997.66769865
  Ewald energy   TEWEN  =     96902.90643176
  -Hartree energ DENC   =   -131347.04392682
  -exchange      EXHF   =         0.00000000
  -V(xc)+E(xc)   XCENC  =       487.55792823
  PAW double counting   =     36033.99337635   -35242.42377488
  entropy T*S    EENTRO =         0.00000000
  eigenvalues    EBANDS =     -1167.25690630
  atomic energy  EATOM  =     33222.63430607
  Solvation  Ediel_sol  =         0.00000000
  ---------------------------------------------------
  free energy    TOTEN  =      -111.96486693 eV

  energy without entropy =     -111.96486693  energy(sigma->0) =     -111.96486693


--------------------------------------------------------------------------------------------------------




--------------------------------------- Iteration      1(   7)  ---------------------------------------


    EDDIAG:  cpu time    2.3667: real time    2.3782
  RMM-DIIS:  cpu time    9.5436: real time    9.6092
    ORTHCH:  cpu time    0.3910: real time    0.3917
 BZINTS: Fermi energy:    0.669830;  395.000000 electrons
         Band energy:-0.116726E+04;  BLOECHL correction:   -0.115787
       DOS:  cpu time    0.0108: real time    0.0108
    --------------------------------------------
      LOOP:  cpu time   12.3121: real time   12.3898

 eigenvalue-minimisations  :  6812
 total energy-change (2. order) :-0.4405749E-03  (-0.4437368E-03)
 number of electron     395.0000021 magnetization 
 augmentation part      395.0000021 magnetization 

 Free energy of the ion-electron system (eV)
  ---------------------------------------------------
  alpha Z        PSCENC =       997.66769865
  Ewald energy   TEWEN  =     96902.90643176
  -Hartree energ DENC   =   -131347.04392682
  -exchange      EXHF   =         0.00000000
  -V(xc)+E(xc)   XCENC  =       487.55792823
  PAW double counting   =     36033.99337635   -35242.42377488
  entropy T*S    EENTRO =         0.00000000
  eigenvalues    EBANDS =     -1167.25734687
  atomic energy  EATOM  =     33222.63430607
  Solvation  Ediel_sol  =         0.00000000
  ---------------------------------------------------
  free energy    TOTEN  =      -111.96530750 eV

  energy without entropy =     -111.96530750  energy(sigma->0) =     -111.96530750


--------------------------------------------------------------------------------------------------------




--------------------------------------- Iteration      1(   8)  ---------------------------------------


    EDDIAG:  cpu time    2.1987: real time    2.2037
  RMM-DIIS:  cpu time    8.0034: real time    8.0365
    ORTHCH:  cpu time    0.2813: real time    0.2819
 BZINTS: Fermi energy:    0.669830;  395.000000 electrons
         Band energy:-0.116726E+04;  BLOECHL correction:   -0.115787
       DOS:  cpu time    0.0115: real time    0.0115
    --------------------------------------------
      LOOP:  cpu time   10.4948: real time   10.5336

 eigenvalue-minimisations  :  5645
 total energy-change (2. order) :-0.3240642E-04  (-0.3219370E-04)
 number of electron     395.0000021 magnetization 
 augmentation part      395.0000021 magnetization 

 Free energy of the ion-electron system (eV)
  ---------------------------------------------------
  alpha Z        PSCENC =       997.66769865
  Ewald energy   TEWEN  =     96902.90643176
  -Hartree energ DENC   =   -131347.04392682
  -exchange      EXHF   =         0.00000000
  -V(xc)+E(xc)   XCENC  =       487.55792823
  PAW double counting   =     36033.99337635   -35242.42377488
  entropy T*S    EENTRO =         0.00000000
  eigenvalues    EBANDS =     -1167.25737928
  atomic energy  EATOM  =     33222.63430607
  Solvation  Ediel_sol  =         0.00000000
  ---------------------------------------------------
  free energy    TOTEN  =      -111.96533991 eV

  energy without entropy =     -111.96533991  energy(sigma->0) =     -111.96533991


--------------------------------------------------------------------------------------------------------




--------------------------------------- Iteration      1(   9)  ---------------------------------------


    EDDIAG:  cpu time    1.4195: real time    1.4205
  RMM-DIIS:  cpu time    3.1993: real time    3.2007
    ORTHCH:  cpu time    0.2759: real time    0.2763
 BZINTS: Fermi energy:    0.669830;  395.000000 electrons
         Band energy:-0.116726E+04;  BLOECHL correction:   -0.115787
       DOS:  cpu time    0.0106: real time    0.0106
    --------------------------------------------
      LOOP:  cpu time    4.9053: real time    4.9081

 eigenvalue-minimisations  :  3265
 total energy-change (2. order) :-0.2645189E-05  (-0.2613246E-05)
 number of electron     395.0000021 magnetization 
 augmentation part      395.0000021 magnetization 

 Free energy of the ion-electron system (eV)
  ---------------------------------------------------
  alpha Z        PSCENC =       997.66769865
  Ewald energy   TEWEN  =     96902.90643176
  -Hartree energ DENC   =   -131347.04392682
  -exchange      EXHF   =         0.00000000
  -V(xc)+E(xc)   XCENC  =       487.55792823
  PAW double counting   =     36033.99337635   -35242.42377488
  entropy T*S    EENTRO =         0.00000000
  eigenvalues    EBANDS =     -1167.25738192
  atomic energy  EATOM  =     33222.63430607
  Solvation  Ediel_sol  =         0.00000000
  ---------------------------------------------------
  free energy    TOTEN  =      -111.96534255 eV

  energy without entropy =     -111.96534255  energy(sigma->0) =     -111.96534255


--------------------------------------------------------------------------------------------------------




 average (electrostatic) potential at core
  the test charge radii are     1.2098  1.1199
  (the norm of the test charge is              1.0000)
       1 -72.3383       2 -72.3191       3 -72.3191       4 -72.3191       5 -72.3338
       6 -72.3189       7 -72.3191       8 -72.3189       9 -72.3229      10 -72.6889
      11 -72.6676      12 -72.6887      13 -72.6676      14 -72.6675      15 -72.6787
      16 -72.6887      17 -72.6787      18 -72.6787      19 -72.6297      20 -72.6186
      21 -72.6186      22 -72.6461      23 -72.6186      24 -72.6462      25 -72.6295
      26 -72.6297      27 -72.6461      28 -72.2632      29 -72.2157      30 -72.2156
      31 -72.2157      32 -72.2156      33 -72.2156      34 -72.2156      35 -72.2611
      36 -78.9519
 
 
 
 E-fermi :   0.6698     XC(G=0):  -6.0871     alpha+bet : -5.7308

 Fermi energy:         0.6698296515

 k-point     1 :       0.0000    0.0000    0.0000
  band No.  band energies     occupation 
      1      -8.0912      2.00000
      2      -6.9043      2.00000
      3      -5.9847      2.00000
      4      -5.9413      2.00000
      5      -5.9362      2.00000
      6      -5.9362      2.00000
      7      -5.9256      2.00000
      8      -5.9255      2.00000
      9      -5.9153      2.00000
     10      -5.8054      2.00000
     11      -5.4485      2.00000
     12      -5.4460      2.00000
     13      -5.4460      2.00000
     14      -5.4380      2.00000
     15      -5.4380      2.00000
     16      -5.4086      2.00000
     17      -5.0698      2.00000
     18      -5.0653      2.00000
     19      -5.0653      2.00000
     20      -5.0494      2.00000
     21      -5.0494      2.00000
     22      -5.0362      2.00000
     23      -4.8984      2.00000
     24      -4.8970      2.00000
     25      -4.8969      2.00000
     26      -4.8685      2.00000
     27      -4.8684      2.00000
     28      -4.8225      2.00000
     29      -4.7264      2.00000
     30      -4.7264      2.00000
     31      -4.7145      2.00000
     32      -4.7145      2.00000
     33      -4.7027      2.00000
     34      -4.7027      2.00000
     35      -4.6979      2.00000
     36      -4.6898      2.00000
     37      -4.6836      2.00000
     38      -4.5791      2.00000
     39      -4.5791      2.00000
     40      -4.4915      2.00000
     41      -4.2337      2.00000
     42      -4.2337      2.00000
     43      -4.1738      2.00000
     44      -4.1723      2.00000
     45      -4.1723      2.00000
     46      -4.1409      2.00000
     47      -4.1318      2.00000
     48      -4.1318      2.00000
     49      -4.0971      2.00000
     50      -4.0970      2.00000
     51      -4.0838      2.00000
     52      -4.0804      2.00000
     53      -3.9933      2.00000
     54      -3.9501      2.00000
     55      -3.6544      2.00000
     56      -3.6420      2.00000
     57      -3.6307      2.00000
     58      -3.6307      2.00000
     59      -3.6084      2.00000
     60      -3.6081      2.00000
     61      -3.6081      2.00000
     62      -3.5831      2.00000
     63      -3.5831      2.00000
     64      -3.5002      2.00000
     65      -3.5002      2.00000
     66      -3.4670      2.00000
     67      -3.4560      2.00000
     68      -3.4560      2.00000
     69      -3.3929      2.00000
     70      -3.3929      2.00000
     71      -3.3787      2.00000
     72      -3.3761      2.00000
     73      -3.3761      2.00000
     74      -3.3671      2.00000
     75      -3.3611      2.00000
     76      -3.3611      2.00000
     77      -3.3529      2.00000
     78      -3.3328      2.00000
     79      -3.3328      2.00000
     80      -3.2829      2.00000
     81      -3.2829      2.00000
     82      -3.2513      2.00000
     83      -3.2479      2.00000
     84      -3.2479      2.00000
     85      -3.2398      2.00000
     86      -3.2101      2.00000
     87      -3.2100      2.00000
     88      -3.2048      2.00000
     89      -3.1512      2.00000
     90      -3.1512      2.00000
     91      -2.9721      2.00000
     92      -2.9721      2.00000
     93      -2.9638      2.00000
     94      -2.9638      2.00000
     95      -2.9521      2.00000
     96      -2.9521      2.00000
     97      -2.8242      2.00000
     98      -2.8242      2.00000
     99      -2.7761      2.00000
    100      -2.7761      2.00000
    101      -2.7681      2.00000
    102      -2.7235      2.00000
    103      -2.6906      2.00000
    104      -2.6906      2.00000
    105      -2.6265      2.00000
    106      -2.6265      2.00000
    107      -2.5664      2.00000
    108      -2.5439      2.00000
    109      -2.5439      2.00000
    110      -2.5439      2.00000
    111      -2.5367      2.00000
    112      -2.4667      2.00000
    113      -2.4667      2.00000
    114      -2.4585      2.00000
    115      -2.4443      2.00000
    116      -2.2938      2.00000
    117      -2.2746      2.00000
    118      -2.2745      2.00000
    119      -2.2542      2.00000
    120      -2.2542      2.00000
    121      -2.2357      2.00000
    122      -2.2193      2.00000
    123      -2.2193      2.00000
    124      -2.1952      2.00000
    125      -2.1952      2.00000
    126      -2.1085      2.00000
    127      -2.1085      2.00000
    128      -2.0089      2.00000
    129      -2.0089      2.00000
    130      -2.0039      2.00000
    131      -1.9981      2.00000
    132      -1.9800      2.00000
    133      -1.9799      2.00000
    134      -1.9719      2.00000
    135      -1.9549      2.00000
    136      -1.9549      2.00000
    137      -1.9391      2.00000
    138      -1.9391      2.00000
    139      -1.8640      2.00000
    140      -1.8640      2.00000
    141      -1.8445      2.00000
    142      -1.7470      2.00000
    143      -1.7387      2.00000
    144      -1.7387      2.00000
    145      -1.7281      2.00000
    146      -1.7281      2.00000
    147      -1.7025      2.00000
    148      -1.7008      2.00000
    149      -1.7008      2.00000
    150      -1.6979      2.00000
    151      -1.6853      2.00000
    152      -1.6853      2.00000
    153      -1.6560      2.00000
    154      -1.5598      2.00000
    155      -1.5437      2.00000
    156      -1.5436      2.00000
    157      -1.5426      2.00000
    158      -1.5394      2.00000
    159      -1.5287      2.00000
    160      -1.5186      2.00000
    161      -1.5185      2.00000
    162      -1.4847      2.00000
    163      -1.4847      2.00000
    164      -1.4669      2.00000
    165      -1.4668      2.00000
    166      -1.4490      2.00000
    167      -1.4490      2.00000
    168      -1.4220      2.00000
    169      -1.4216      2.00000
    170      -1.4216      2.00000
    171      -1.4184      2.00000
    172      -1.4179      2.00000
    173      -1.3707      2.00000
    174      -1.3707      2.00000
    175      -1.3535      2.00000
    176      -1.3535      2.00000
    177      -1.3365      2.00000
    178      -1.3323      2.00000
    179      -1.3317      2.00000
    180      -1.3317      2.00000
    181      -1.3242      2.00000
    182      -1.3172      2.00000
    183      -1.2591      2.00000
    184      -1.2591      2.00000
    185      -1.1667      2.00000
    186      -1.1666      2.00000
    187      -1.1231      2.00000
    188      -1.1231      2.00000
    189      -1.0997      2.00000
    190      -1.0937      2.00000
    191      -0.6072      2.00000
    192      -0.4790      2.00000
    193      -0.4790      2.00000
    194      -0.4230      2.00000
    195      -0.4230      2.00000
    196      -0.3001      2.00000
    197       0.1449      2.00000
    198       0.1602      2.00000
    199       0.1602      2.00000
    200       0.2231      2.00000
    201       0.2232      2.00000
    202       0.5336      1.33577
    203       1.1165      0.00000
    204       2.2898      0.00000
    205       2.2979      0.00000
    206       2.2980      0.00000
    207       2.3795      0.00000
    208       2.3795      0.00000
    209       2.5061      0.00000
    210       3.4873      0.00000
    211       3.4873      0.00000
    212       3.5348      0.00000
    213       3.5348      0.00000
    214       3.5633      0.00000
    215       3.6743      0.00000
    216       4.1574      0.00000
    217       4.5622      0.00000
    218       5.2931      0.00000
    219       5.3735      0.00000
    220       5.3735      0.00000
    221       5.3794      0.00000
    222       5.3906      0.00000
    223       5.3907      0.00000
    224       5.5028      0.00000
    225       5.5028      0.00000
    226       5.5165      0.00000
    227       5.5319      0.00000
    228       5.5319      0.00000
    229       5.6500      0.00000
    230       6.1693      0.00000
    231       6.2958      0.00000
    232       6.9208      0.00000
    233       6.9968      0.00000
    234       7.0829      0.00000
    235       7.0830      0.00000
    236       7.0928      0.00000
    237       7.0928      0.00000
    238       7.1145      0.00000
    239       7.1272      0.00000
    240       7.1273      0.00000
    241       7.1514      0.00000
    242       7.2121      0.00000
    243       7.2127      0.00000
    244       7.4200      0.00000
    245       7.4204      0.00000
    246       7.4325      0.00000
    247       7.4384      0.00000
    248       7.4387      0.00000
    249       7.6108      0.00000
    250       7.8515      0.00000
    251       7.9160      0.00000
    252       8.0891      0.00000

 k-point     2 :       0.1250   -0.0000    0.0000
  band No.  band energies     occupation 
      1      -8.0402      2.00000
      2      -6.8546      2.00000
      3      -6.1820      2.00000
      4      -6.0064      2.00000
      5      -6.0018      2.00000
      6      -5.9360      2.00000
      7      -5.8202      2.00000
      8      -5.8169      2.00000
      9      -5.8032      2.00000
     10      -5.7590      2.00000
     11      -5.4776      2.00000
     12      -5.4688      2.00000
     13      -5.4236      2.00000
     14      -5.4221      2.00000
     15      -5.4112      2.00000
     16      -5.3857      2.00000
     17      -5.1205      2.00000
     18      -5.0657      2.00000
     19      -5.0656      2.00000
     20      -5.0297      2.00000
     21      -5.0157      2.00000
     22      -5.0100      2.00000
     23      -4.9606      2.00000
     24      -4.9107      2.00000
     25      -4.8966      2.00000
     26      -4.8400      2.00000
     27      -4.8361      2.00000
     28      -4.7953      2.00000
     29      -4.7841      2.00000
     30      -4.7721      2.00000
     31      -4.7718      2.00000
     32      -4.7558      2.00000
     33      -4.6965      2.00000
     34      -4.6790      2.00000
     35      -4.6629      2.00000
     36      -4.5847      2.00000
     37      -4.5815      2.00000
     38      -4.5525      2.00000
     39      -4.5416      2.00000
     40      -4.4606      2.00000
     41      -4.3024      2.00000
     42      -4.3012      2.00000
     43      -4.2383      2.00000
     44      -4.2020      2.00000
     45      -4.1993      2.00000
     46      -4.1829      2.00000
     47      -4.1672      2.00000
     48      -4.1014      2.00000
     49      -4.0825      2.00000
     50      -4.0538      2.00000
     51      -4.0253      2.00000
     52      -4.0047      2.00000
     53      -3.9860      2.00000
     54      -3.9561      2.00000
     55      -3.6862      2.00000
     56      -3.6726      2.00000
     57      -3.6622      2.00000
     58      -3.6591      2.00000
     59      -3.6481      2.00000
     60      -3.6311      2.00000
     61      -3.6166      2.00000
     62      -3.6083      2.00000
     63      -3.5785      2.00000
     64      -3.5530      2.00000
     65      -3.5465      2.00000
     66      -3.5438      2.00000
     67      -3.5332      2.00000
     68      -3.4779      2.00000
     69      -3.4752      2.00000
     70      -3.4740      2.00000
     71      -3.4441      2.00000
     72      -3.4153      2.00000
     73      -3.4142      2.00000
     74      -3.3881      2.00000
     75      -3.3779      2.00000
     76      -3.3769      2.00000
     77      -3.3156      2.00000
     78      -3.3059      2.00000
     79      -3.3035      2.00000
     80      -3.2790      2.00000
     81      -3.2720      2.00000
     82      -3.2400      2.00000
     83      -3.2203      2.00000
     84      -3.2140      2.00000
     85      -3.1907      2.00000
     86      -3.1760      2.00000
     87      -3.1642      2.00000
     88      -3.1618      2.00000
     89      -3.1230      2.00000
     90      -3.0701      2.00000
     91      -3.0686      2.00000
     92      -3.0622      2.00000
     93      -2.9870      2.00000
     94      -2.9604      2.00000
     95      -2.8933      2.00000
     96      -2.8731      2.00000
     97      -2.8697      2.00000
     98      -2.8445      2.00000
     99      -2.8303      2.00000
    100      -2.8118      2.00000
    101      -2.8097      2.00000
    102      -2.7401      2.00000
    103      -2.7357      2.00000
    104      -2.6630      2.00000
    105      -2.6298      2.00000
    106      -2.6103      2.00000
    107      -2.5869      2.00000
    108      -2.5694      2.00000
    109      -2.5628      2.00000
    110      -2.5548      2.00000
    111      -2.5453      2.00000
    112      -2.5351      2.00000
    113      -2.5081      2.00000
    114      -2.5078      2.00000
    115      -2.4807      2.00000
    116      -2.4781      2.00000
    117      -2.4350      2.00000
    118      -2.4320      2.00000
    119      -2.3986      2.00000
    120      -2.2871      2.00000
    121      -2.2515      2.00000
    122      -2.2360      2.00000
    123      -2.2247      2.00000
    124      -2.2193      2.00000
    125      -2.1788      2.00000
    126      -2.1751      2.00000
    127      -2.1600      2.00000
    128      -2.1547      2.00000
    129      -2.1227      2.00000
    130      -2.1018      2.00000
    131      -2.0742      2.00000
    132      -2.0608      2.00000
    133      -2.0381      2.00000
    134      -1.9893      2.00000
    135      -1.9721      2.00000
    136      -1.9471      2.00000
    137      -1.9256      2.00000
    138      -1.9154      2.00000
    139      -1.9041      2.00000
    140      -1.9028      2.00000
    141      -1.8469      2.00000
    142      -1.8327      2.00000
    143      -1.7975      2.00000
    144      -1.7880      2.00000
    145      -1.7207      2.00000
    146      -1.7167      2.00000
    147      -1.7060      2.00000
    148      -1.6867      2.00000
    149      -1.6834      2.00000
    150      -1.6608      2.00000
    151      -1.6559      2.00000
    152      -1.6333      2.00000
    153      -1.5859      2.00000
    154      -1.5558      2.00000
    155      -1.5546      2.00000
    156      -1.5397      2.00000
    157      -1.5279      2.00000
    158      -1.5244      2.00000
    159      -1.5100      2.00000
    160      -1.4925      2.00000
    161      -1.4756      2.00000
    162      -1.4729      2.00000
    163      -1.4525      2.00000
    164      -1.4514      2.00000
    165      -1.4396      2.00000
    166      -1.4320      2.00000
    167      -1.4216      2.00000
    168      -1.3982      2.00000
    169      -1.3973      2.00000
    170      -1.3708      2.00000
    171      -1.3698      2.00000
    172      -1.3240      2.00000
    173      -1.3151      2.00000
    174      -1.3074      2.00000
    175      -1.3043      2.00000
    176      -1.2878      2.00000
    177      -1.2421      2.00000
    178      -1.2148      2.00000
    179      -1.2083      2.00000
    180      -1.2018      2.00000
    181      -1.1693      2.00000
    182      -1.1631      2.00000
    183      -1.1355      2.00000
    184      -1.1295      2.00000
    185      -1.1176      2.00000
    186      -1.1015      2.00000
    187      -1.0679      2.00000
    188      -0.9717      2.00000
    189      -0.9650      2.00000
    190      -0.8817      2.00000
    191      -0.5616      2.00000
    192      -0.5167      2.00000
    193      -0.4703      2.00000
    194      -0.3954      2.00000
    195      -0.3531      2.00000
    196      -0.1907      2.00000
    197      -0.1520      2.00000
    198       0.0330      2.00000
    199       0.1511      2.00000
    200       0.5159      1.88076
    201       0.5711      1.22710
    202       0.8353     -0.01874
    203       1.2677      0.00000
    204       1.8760      0.00000
    205       2.1328      0.00000
    206       2.1758      0.00000
    207       2.6514      0.00000
    208       2.6761      0.00000
    209       2.8249      0.00000
    210       2.8497      0.00000
    211       2.9642      0.00000
    212       3.5754      0.00000
    213       3.5897      0.00000
    214       3.8225      0.00000
    215       3.9461      0.00000
    216       4.1732      0.00000
    217       4.4179      0.00000
    218       4.8212      0.00000
    219       5.0819      0.00000
    220       5.1457      0.00000
    221       5.1682      0.00000
    222       5.2072      0.00000
    223       5.3267      0.00000
    224       5.3846      0.00000
    225       5.5744      0.00000
    226       5.6152      0.00000
    227       5.6902      0.00000
    228       5.7317      0.00000
    229       5.7902      0.00000
    230       6.2121      0.00000
    231       6.3513      0.00000
    232       6.3825      0.00000
    233       6.6417      0.00000
    234       6.6634      0.00000
    235       6.7374      0.00000
    236       6.7548      0.00000
    237       6.7827      0.00000
    238       6.9497      0.00000
    239       6.9825      0.00000
    240       7.0307      0.00000
    241       7.0504      0.00000
    242       7.1787      0.00000
    243       7.4277      0.00000
    244       7.4769      0.00000
    245       7.4853      0.00000
    246       7.5697      0.00000
    247       7.6401      0.00000
    248       7.7939      0.00000
    249       7.8299      0.00000
    250       7.9069      0.00000
    251       7.9361      0.00000
    252       7.9479      0.00000

 k-point     3 :       0.2500   -0.0000    0.0000
  band No.  band energies     occupation 
      1      -7.8892      2.00000
      2      -6.7100      2.00000
      3      -6.5372      2.00000
      4      -6.0483      2.00000
      5      -6.0412      2.00000
      6      -5.7992      2.00000
      7      -5.7570      2.00000
      8      -5.6715      2.00000
      9      -5.6659      2.00000
     10      -5.6527      2.00000
     11      -5.5845      2.00000
     12      -5.5302      2.00000
     13      -5.3576      2.00000
     14      -5.3548      2.00000
     15      -5.3457      2.00000
     16      -5.3185      2.00000
     17      -5.2039      2.00000
     18      -5.0580      2.00000
     19      -5.0577      2.00000
     20      -5.0321      2.00000
     21      -4.9956      2.00000
     22      -4.9625      2.00000
     23      -4.9597      2.00000
     24      -4.9230      2.00000
     25      -4.9230      2.00000
     26      -4.9011      2.00000
     27      -4.8940      2.00000
     28      -4.8552      2.00000
     29      -4.8392      2.00000
     30      -4.8035      2.00000
     31      -4.6863      2.00000
     32      -4.6791      2.00000
     33      -4.6434      2.00000
     34      -4.6064      2.00000
     35      -4.5762      2.00000
     36      -4.5730      2.00000
     37      -4.5625      2.00000
     38      -4.4506      2.00000
     39      -4.4452      2.00000
     40      -4.4033      2.00000
     41      -4.3900      2.00000
     42      -4.3631      2.00000
     43      -4.3020      2.00000
     44      -4.2382      2.00000
     45      -4.2366      2.00000
     46      -4.2187      2.00000
     47      -4.2016      2.00000
     48      -4.0727      2.00000
     49      -4.0626      2.00000
     50      -4.0293      2.00000
     51      -4.0146      2.00000
     52      -3.9861      2.00000
     53      -3.9657      2.00000
     54      -3.9547      2.00000
     55      -3.8786      2.00000
     56      -3.8359      2.00000
     57      -3.8304      2.00000
     58      -3.7527      2.00000
     59      -3.7249      2.00000
     60      -3.7192      2.00000
     61      -3.6972      2.00000
     62      -3.6833      2.00000
     63      -3.6337      2.00000
     64      -3.6139      2.00000
     65      -3.6083      2.00000
[...]
  0.000   0.000   0.000   2.000   0.000   0.000   0.000   0.000   0.000   0.000   0.000   0.000   0.000   0.000   0.000   0.000
  0.000   0.000   0.000   0.000   2.000   0.000   0.000   0.000   0.000   0.000   0.000   0.000   0.000   0.000   0.000   0.000
  0.000   0.000   0.000   0.000   0.000   0.000   0.000   0.000   0.000   0.000   0.000   0.000   0.000   0.000   0.000   0.000
  0.000   0.000   0.000   0.000   0.000   0.000   0.000   0.000   0.000   0.000   0.000   0.000   0.000   0.000   0.000   0.000
  0.000   0.000   0.000   0.000   0.000   0.000   0.000   0.000   0.000   0.000   0.000   0.000   0.000   0.000   0.000   0.000
  0.000   0.000   0.000   0.000   0.000   0.000   0.000   0.000   0.000   0.000   0.000   0.000   0.000   0.000   0.000   0.000
  0.000   0.000   0.000   0.000   0.000   0.000   0.000   0.000   0.000   0.000   0.000   0.000   0.000   0.000   0.000   0.000
  0.000   0.000   0.000   0.000   0.000   0.000   0.000   0.000   0.000   0.000   1.000   0.000   0.000   0.000   0.000   0.000
  0.000   0.000   0.000   0.000   0.000   0.000   0.000   0.000   0.000   0.000   0.000   0.000   0.000   0.000   0.000   0.000
  0.000   0.000   0.000   0.000   0.000   0.000   0.000   0.000   0.000   0.000   0.000   0.000   0.000   0.000   0.000   0.000
  0.000   0.000   0.000   0.000   0.000   0.000   0.000   0.000   0.000   0.000   0.000   0.000   0.000   0.000   0.000   0.000
  0.000   0.000   0.000   0.000   0.000   0.000   0.000   0.000   0.000   0.000   0.000   0.000   0.000   0.000   0.000   0.000
  0.000   0.000   0.000   0.000   0.000   0.000   0.000   0.000   0.000   0.000   0.000   0.000   0.000   0.000   0.000   0.000
  0.000   0.000   0.000   0.000   0.000   0.000   0.000   0.000   0.000   0.000   0.000   0.000   0.000   0.000   0.000   0.000
  0.000   0.000   0.000   0.000   0.000   0.000   0.000   0.000   0.000   0.000   0.000   0.000   0.000   0.000   0.000   0.000


------------------------ aborting loop because EDIFF is reached ----------------------------------------





 total charge

# of ion       s       p       d       tot
------------------------------------------
    1        0.543   0.241   8.766   9.550
    2        0.545   0.240   8.766   9.551
    3        0.545   0.240   8.766   9.551
    4        0.545   0.240   8.766   9.551
    5        0.540   0.241   8.765   9.546
    6        0.545   0.240   8.766   9.551
    7        0.545   0.240   8.766   9.551
    8        0.545   0.240   8.766   9.551
    9        0.545   0.240   8.766   9.550
   10        0.518   0.308   8.770   9.596
   11        0.520   0.305   8.776   9.600
   12        0.518   0.308   8.770   9.596
   13        0.520   0.305   8.776   9.600
   14        0.520   0.305   8.776   9.600
   15        0.517   0.306   8.775   9.598
   16        0.518   0.308   8.770   9.596
   17        0.517   0.306   8.775   9.598
   18        0.517   0.306   8.775   9.598
   19        0.517   0.302   8.775   9.595
   20        0.524   0.310   8.767   9.600
   21        0.524   0.310   8.767   9.600
   22        0.513   0.304   8.771   9.588
   23        0.524   0.310   8.767   9.600
   24        0.513   0.304   8.771   9.588
   25        0.517   0.302   8.775   9.595
   26        0.517   0.302   8.775   9.595
   27        0.513   0.304   8.771   9.588
   28        0.542   0.233   8.766   9.540
   29        0.548   0.232   8.765   9.544
   30        0.548   0.232   8.765   9.544
   31        0.548   0.232   8.765   9.544
   32        0.548   0.232   8.765   9.544
   33        0.548   0.232   8.765   9.544
   34        0.548   0.232   8.765   9.544
   35        0.541   0.234   8.766   9.541
   36        0.360   0.271   8.566   9.197
--------------------------------------------------
tot         18.953   9.796 315.474 344.223
 
    CHARGE:  cpu time    0.3558: real time    0.3559
    FORLOC:  cpu time    0.0096: real time    0.0096
    FORNL :  cpu time    1.5138: real time    1.5147
    STRESS:  cpu time    6.1578: real time    6.2138
    FORCOR:  cpu time    0.0825: real time    0.0833
    FORHAR:  cpu time    0.0190: real time    0.0192
    OFIELD:  cpu time    0.0004: real time    0.0004

  FORCE on cell =-STRESS in cart. coord.  units (eV):
  Direction    XX          YY          ZZ          XY          YZ          ZX
  --------------------------------------------------------------------------------------
  Alpha Z   997.66770   997.66770   997.66770
  Ewald  119713.25661119713.25701************    -0.00034    -0.00009    -0.00016
  Hartree128381.75794128381.75794************    -0.00000    -0.00002    -0.00004
  E(xc)   -1779.97478 -1779.97476 -1787.39450    -0.00002    -0.00000    -0.00000
  Local  ************************260779.51781     0.00177     0.00004     0.00008
  n-local   -97.03785   -37.61023   -43.73333    24.53070    -1.38174     1.71403
  augment  2441.12436  2441.12593  2457.09060    -0.00136     0.00002     0.00003
  Kinetic  5474.66473  5491.44099  5537.52401     5.97793    -0.15757     0.64599
  Fock        0.00000     0.00000     0.00000     0.00000     0.00000     0.00000
  -------------------------------------------------------------------------------------
  Total     -20.76559   -20.76558     0.85347    -0.00000     0.00000     0.00000
  in kB     -22.28165   -22.28165     0.91579    -0.00000     0.00000     0.00000
  external pressure =      -14.55 kB  Pullay stress =        0.00 kB


 VOLUME and BASIS-vectors are now :
 -----------------------------------------------------------------------------
  energy-cutoff  :      500.00
  volume of cell :     1493.16
      direct lattice vectors                 reciprocal lattice vectors
     8.813512802  0.000000000  0.000000000     0.113462137 -0.065507406  0.000000000
     4.406756909  7.632725690  0.000000000     0.000000000  0.131014796  0.000000000
     0.000000000  0.000000000 22.196203232     0.000000000  0.000000000  0.045052750

  length of vectors
     8.813512802  8.813512802 22.196203232     0.131014796  0.131014796  0.045052750


 FORCES acting on ions
    electron-ion (+dipol)            ewald-force                    non-local-force                 convergence-correction
 -----------------------------------------------------------------------------------------------
   -.198E-04 -.163E-04 0.248E+04   0.518E-04 0.433E-04 -.248E+04   0.374E-17 -.946E-18 -.574E+00   -.254E-03 -.160E-03 -.804E-02
   -.159E+00 0.102E+00 0.248E+04   0.125E+00 -.339E-01 -.248E+04   0.783E-02 -.251E-01 -.326E+00   0.212E-01 -.432E-01 -.400E-01
   0.159E+00 0.102E+00 0.248E+04   -.125E+00 -.339E-01 -.248E+04   -.783E-02 -.251E-01 -.326E+00   -.209E-01 -.413E-01 -.393E-01
   0.897E-02 -.189E+00 0.248E+04   0.332E-01 0.125E+00 -.248E+04   -.178E-01 0.193E-01 -.326E+00   -.267E-01 0.399E-01 -.400E-01
   0.716E-05 -.239E-04 0.248E+04   0.952E-04 0.169E-05 -.248E+04   -.288E-18 0.122E-17 -.398E+00   0.420E-02 0.256E-02 -.820E-01
   -.902E-02 -.189E+00 0.248E+04   -.333E-01 0.125E+00 -.248E+04   0.178E-01 0.193E-01 -.326E+00   0.253E-01 0.407E-01 -.392E-01
   0.168E+00 0.865E-01 0.248E+04   -.921E-01 -.916E-01 -.248E+04   -.257E-01 0.578E-02 -.326E+00   -.462E-01 0.258E-02 -.392E-01
   -.168E+00 0.865E-01 0.248E+04   0.919E-01 -.916E-01 -.248E+04   0.257E-01 0.578E-02 -.326E+00   0.479E-01 0.152E-02 -.393E-01
   0.196E-04 -.416E-04 0.248E+04   0.166E-03 -.200E-04 -.248E+04   -.214E-17 -.363E-17 -.384E+00   -.449E-02 -.232E-02 -.170E-01
   -.713E+00 -.412E+00 0.825E+03   0.931E+00 0.538E+00 -.825E+03   -.773E-01 -.446E-01 -.492E+00   -.855E-01 -.495E-01 0.125E+00
   0.140E-04 0.315E+00 0.824E+03   0.149E-03 -.316E+00 -.824E+03   0.264E-09 0.396E-02 -.381E+00   0.410E-02 -.134E-01 0.140E+00
   0.713E+00 -.412E+00 0.825E+03   -.931E+00 0.538E+00 -.825E+03   0.773E-01 -.446E-01 -.492E+00   0.842E-01 -.490E-01 0.124E+00
   0.273E+00 -.158E+00 0.824E+03   -.274E+00 0.158E+00 -.824E+03   0.343E-02 -.198E-02 -.381E+00   -.928E-02 0.105E-01 0.140E+00
   -.273E+00 -.158E+00 0.824E+03   0.273E+00 0.158E+00 -.824E+03   -.343E-02 -.198E-02 -.381E+00   0.162E-01 0.921E-02 0.138E+00
   0.317E-04 -.998E+00 0.824E+03   0.236E-03 0.950E+00 -.823E+03   0.157E-08 0.235E-01 -.353E+00   -.182E-02 0.313E-01 0.184E+00
   -.211E-04 0.823E+00 0.825E+03   0.162E-03 -.107E+01 -.825E+03   0.594E-08 0.893E-01 -.492E+00   -.636E-03 0.974E-01 0.124E+00
   -.864E+00 0.499E+00 0.824E+03   0.822E+00 -.475E+00 -.823E+03   0.204E-01 -.118E-01 -.353E+00   0.264E-01 -.168E-01 0.184E+00
   0.864E+00 0.499E+00 0.824E+03   -.823E+00 -.475E+00 -.823E+03   -.204E-01 -.118E-01 -.353E+00   -.256E-01 -.150E-01 0.186E+00
   -.400E-04 -.242E+01 -.847E+03   0.536E-04 0.227E+01 0.846E+03   0.322E-08 0.484E-01 0.560E+00   0.718E-03 0.915E-01 -.190E-01
   0.472E+01 0.273E+01 -.845E+03   -.440E+01 -.254E+01 0.845E+03   -.307E+00 -.177E+00 -.199E+00   -.131E-01 -.770E-02 0.144E-01
   -.472E+01 0.273E+01 -.845E+03   0.440E+01 -.254E+01 0.845E+03   0.307E+00 -.177E+00 -.199E+00   0.692E-02 -.957E-02 0.141E-01
   0.112E+01 -.647E+00 -.849E+03   -.122E+01 0.704E+00 0.848E+03   0.137E+00 -.791E-01 0.562E+00   -.417E-01 0.291E-01 -.519E-02
   -.139E-04 -.545E+01 -.845E+03   0.144E-03 0.509E+01 0.845E+03   0.236E-07 0.354E+00 -.199E+00   -.508E-02 0.108E-01 0.141E-01
   -.112E+01 -.647E+00 -.849E+03   0.122E+01 0.704E+00 0.848E+03   -.137E+00 -.791E-01 0.562E+00   0.498E-01 0.288E-01 -.519E-02
   0.209E+01 0.121E+01 -.847E+03   -.197E+01 -.114E+01 0.846E+03   -.419E-01 -.242E-01 0.560E+00   -.809E-01 -.467E-01 -.194E-01
   -.209E+01 0.121E+01 -.847E+03   0.197E+01 -.114E+01 0.846E+03   0.419E-01 -.242E-01 0.560E+00   0.799E-01 -.451E-01 -.190E-01
   0.467E-05 0.129E+01 -.849E+03   0.201E-03 -.141E+01 0.848E+03   0.105E-07 0.158E+00 0.562E+00   0.379E-02 -.507E-01 -.516E-02
   -.788E-05 -.109E-04 -.248E+04   0.256E-04 0.313E-04 0.248E+04   0.403E-18 -.278E-17 0.449E+00   -.783E-04 -.625E-04 0.844E-01
   -.320E+01 -.731E+01 -.249E+04   0.347E+01 0.775E+01 0.249E+04   -.249E+00 -.360E+00 0.396E+00   -.236E-01 -.898E-01 -.393E-01
   0.320E+01 -.731E+01 -.249E+04   -.347E+01 0.775E+01 0.249E+04   0.249E+00 -.360E+00 0.396E+00   0.237E-01 -.890E-01 -.398E-01
   -.793E+01 0.885E+00 -.249E+04   0.845E+01 -.873E+00 0.249E+04   -.436E+00 -.358E-01 0.396E+00   -.895E-01 0.244E-01 -.392E-01
   0.793E+01 0.886E+00 -.249E+04   -.845E+01 -.873E+00 0.249E+04   0.436E+00 -.358E-01 0.396E+00   0.892E-01 0.249E-01 -.384E-01
   -.473E+01 0.642E+01 -.249E+04   0.498E+01 -.688E+01 0.249E+04   -.187E+00 0.396E+00 0.396E+00   -.652E-01 0.650E-01 -.399E-01
   0.473E+01 0.642E+01 -.249E+04   -.498E+01 -.688E+01 0.249E+04   0.187E+00 0.396E+00 0.396E+00   0.662E-01 0.648E-01 -.384E-01
   0.275E-04 -.317E-04 -.248E+04   0.151E-03 -.462E-04 0.248E+04   -.453E-18 -.305E-18 0.463E+00   -.392E-02 -.197E-02 -.252E-01
   -.115E-04 -.218E-04 -.222E+04   0.992E-04 0.867E-05 0.222E+04   -.127E-17 0.856E-18 0.216E+01   0.382E-02 0.235E-02 0.262E-01
 -----------------------------------------------------------------------------------------------
   -.774E-03 -.790E-03 -.110E+01   -.178E-13 0.327E-14 -.182E-11   0.260E-16 -.110E-15 0.122E+01   0.912E-02 0.593E-02 0.821E+00
 
 
 POSITION                                       TOTAL-FORCE (eV/Angst)
 -----------------------------------------------------------------------------------
      0.00000      0.00000      5.28038         0.000000      0.000000     -0.058725
      2.93784      0.00000      5.28038        -0.004189      0.000890     -0.083966
      5.87568      0.00000      5.28038         0.004189      0.000890     -0.083966
      1.46892      2.54424      5.28038        -0.001323     -0.004073     -0.083966
      4.40676      2.54424      5.28038         0.000000      0.000000     -0.090617
      7.34459      2.54424      5.28038         0.001323     -0.004073     -0.083966
      2.93784      5.08848      5.28038         0.002865      0.003183     -0.083966
      5.87568      5.08848      5.28038        -0.002865      0.003183     -0.083966
      8.81351      5.08848      5.28038         0.000000      0.000000     -0.079572
      1.46892      0.84808      7.67911         0.055749      0.032187      0.083085
      4.40676      0.84808      7.67911        -0.000000     -0.011817      0.087404
      7.34459      0.84808      7.67911        -0.055749      0.032187      0.083085
      2.93784      3.39232      7.67911        -0.010234      0.005909      0.087404
      5.87568      3.39232      7.67911         0.010234      0.005909      0.087404
      8.81351      3.39232      7.67911         0.000000      0.005781      0.104622
      4.40676      5.93656      7.67911        -0.000000     -0.064373      0.083085
      7.34459      5.93656      7.67911         0.005007     -0.002891      0.104622
     10.28243      5.93656      7.67911        -0.005007     -0.002891      0.104622
      8.81351      1.69299     10.06281        -0.000000     -0.005984      0.008685
      2.93673      1.69552     10.07074        -0.000325     -0.000187      0.001460
      5.87678      1.69552     10.07074         0.000325     -0.000187      0.001460
     10.28200      4.24065     10.07064        -0.007705      0.004449      0.003564
      4.40676      4.24168     10.07074         0.000000      0.000375      0.001460
      7.34503      4.24065     10.07064         0.007705      0.004449      0.003564
     11.75410      6.78623     10.06281         0.005182      0.002992      0.008685
      5.87293      6.78623     10.06281        -0.005182      0.002992      0.008685
      8.81351      6.78414     10.07064        -0.000000     -0.008897      0.003564
      0.00000      0.00000     12.49359         0.000000      0.000000     -0.020858
      2.94266      0.00661     12.49157         0.000278     -0.002204     -0.013507
      5.87086      0.00661     12.49157        -0.000278     -0.002204     -0.013507
      1.47706      2.54511     12.49157        -0.001770      0.001343     -0.013507
      7.33646      2.54511     12.49157         0.001770      0.001343     -0.013507
      2.94116      5.08100     12.49157        -0.002048      0.000862     -0.013507
      5.87236      5.08100     12.49157         0.002048      0.000862     -0.013507
      8.81351      5.08848     12.49778         0.000000      0.000000     -0.023628
      4.40676      2.54424     12.34091         0.000000      0.000000     -0.008222
 -----------------------------------------------------------------------------------
    total drift:                                0.008351      0.005139      0.937201


--------------------------------------------------------------------------------------------------------



  FREE ENERGIE OF THE ION-ELECTRON SYSTEM (eV)
  ---------------------------------------------------
  free  energy   TOTEN  =      -111.96534255 eV

  energy  without entropy=     -111.96534255  energy(sigma->0) =     -111.96534255
 


--------------------------------------------------------------------------------------------------------


    POTLOK:  cpu time    0.0723: real time    0.0726


--------------------------------------------------------------------------------------------------------


 stress matrix after NEB project (eV)
    -20.76559     -0.00000      0.00000
     -0.00000    -20.76558      0.00000
     -0.00000      0.00000      0.85347
  FORCES: max atom, RMS     0.023628    0.008821
  FORCE total and by dimension    0.052926    0.023628
  Stress total and by dimension   29.379370   20.765585
     LOOP+:  cpu time  114.2049: real time  115.1193
 -----------------------------------------------------------------------------
|                                                                             |
|           W    W    AA    RRRRR   N    N  II  N    N   GGGG   !!!           |
|           W    W   A  A   R    R  NN   N  II  NN   N  G    G  !!!           |
|           W    W  A    A  R    R  N N  N  II  N N  N  G       !!!           |
|           W WW W  AAAAAA  RRRRR   N  N N  II  N  N N  G  GGG   !            |
|           WW  WW  A    A  R   R   N   NN  II  N   NN  G    G                |
|           W    W  A    A  R    R  N    N  II  N    N   GGGG   !!!           |
|                                                                             |
|     Tetrahedron method does not include variations of the Fermi             |
|     occupations, so forces and stress will be inaccurate. We suggest        |
|     using a different smearing scheme ISMEAR = 1 or 2 for metals in         |
|     relaxations.                                                            |
|                                                                             |
 -----------------------------------------------------------------------------

    4ORBIT:  cpu time    0.0000: real time    0.0000



 total charge

# of ion       s       p       d       tot
------------------------------------------
    1        0.543   0.241   8.766   9.550
    2        0.545   0.240   8.766   9.551
    3        0.545   0.240   8.766   9.551
    4        0.545   0.240   8.766   9.551
    5        0.540   0.241   8.765   9.546
    6        0.545   0.240   8.766   9.551
    7        0.545   0.240   8.766   9.551
    8        0.545   0.240   8.766   9.551
    9        0.545   0.240   8.766   9.550
   10        0.518   0.308   8.770   9.596
   11        0.520   0.305   8.776   9.600
   12        0.518   0.308   8.770   9.596
   13        0.520   0.305   8.776   9.600
   14        0.520   0.305   8.776   9.600
   15        0.517   0.306   8.775   9.598
   16        0.518   0.308   8.770   9.596
   17        0.517   0.306   8.775   9.598
   18        0.517   0.306   8.775   9.598
   19        0.517   0.302   8.775   9.595
   20        0.524   0.310   8.767   9.600
   21        0.524   0.310   8.767   9.600
   22        0.513   0.304   8.771   9.588
   23        0.524   0.310   8.767   9.600
   24        0.513   0.304   8.771   9.588
   25        0.517   0.302   8.775   9.595
   26        0.517   0.302   8.775   9.595
   27        0.513   0.304   8.771   9.588
   28        0.542   0.233   8.766   9.540
   29        0.548   0.232   8.765   9.544
   30        0.548   0.232   8.765   9.544
   31        0.548   0.232   8.765   9.544
   32        0.548   0.232   8.765   9.544
   33        0.548   0.232   8.765   9.544
   34        0.548   0.232   8.765   9.544
   35        0.541   0.234   8.766   9.541
   36        0.360   0.271   8.566   9.197
--------------------------------------------------
tot         18.953   9.796 315.474 344.223
 
 BZINTS: Fermi energy:    0.669830;  395.000000 electrons
         Band energy:-0.116726E+04;  BLOECHL correction:   -0.115787

 total amount of memory used by VASP MPI-rank0   121272. kBytes
=======================================================================

   base      :      30000. kBytes
   nonlr-proj:      13684. kBytes
   fftplans  :       4330. kBytes
   grid      :      17098. kBytes
   one-center:        559. kBytes
   wavefun   :      55601. kBytes
 
  
  
 General timing and accounting informations for this job:
 ========================================================
  
                  Total CPU time used (sec):      123.104
                            User time (sec):      119.068
                          System time (sec):        4.036
                         Elapsed time (sec):      124.546
  
                   Maximum memory used (kb):      377248.
                   Average memory used (kb):          N/A
  
                          Minor page faults:        78348
                          Major page faults:            0
                 Voluntary context switches:         5401
