PROCAR new format
# of k-points:   10         # of bands:  252         # of ions:   36

 k-point     1 :    0.00000000 0.00000000 0.00000000     weight = 0.01562500

band     1 # energy   -8.09118960 # occ.  2.00000000
 
ion      s      p      d    tot
    1  0.007  0.001  0.000  0.008
    2  0.007  0.001  0.000  0.008
    3  0.007  0.001  0.000  0.008
    4  0.007  0.001  0.000  0.008
    5  0.007  0.001  0.000  0.008
    6  0.007  0.001  0.000  0.008
    7  0.007  0.001  0.000  0.008
    8  0.007  0.001  0.000  0.008
    9  0.007  0.001  0.000  0.008
   10  0.028  0.000  0.000  0.028
   11  0.027  0.000  0.000  0.028
   12  0.028  0.000  0.000  0.028
   13  0.027  0.000  0.000  0.028
   14  0.027  0.000  0.000  0.028
   15  0.028  0.000  0.000  0.028
   16  0.028  0.000  0.000  0.028
   17  0.028  0.000  0.000  0.028
   18  0.028  0.000  0.000  0.028
   19  0.024  0.000  0.000  0.025
   20  0.023  0.000  0.000  0.023
   21  0.023  0.000  0.000  0.023
   22  0.024  0.000  0.000  0.024
   23  0.023  0.000  0.000  0.023
   24  0.024  0.000  0.000  0.024
   25  0.024  0.000  0.000  0.025
   26  0.024  0.000  0.000  0.025
   27  0.024  0.000  0.000  0.024
   28  0.005  0.000  0.000  0.005
   29  0.004  0.000  0.000  0.005
   30  0.004  0.000  0.000  0.005
   31  0.004  0.000  0.000  0.005
   32  0.004  0.000  0.000  0.005
   33  0.004  0.000  0.000  0.005
   34  0.004  0.000  0.000  0.005
   35  0.005  0.000  0.000  0.005
   36  0.003  0.001  0.000  0.004
tot    0.564  0.012  0.004  0.580
 
band     2 # energy   -6.90432659 # occ.  2.00000000
 
ion      s      p      d    tot
    1  0.017  0.000  0.001  0.018
    2  0.016  0.000  0.001  0.018
    3  0.016  0.000  0.001  0.018
    4  0.016  0.000  0.001  0.018
    5  0.017  0.000  0.001  0.018
    6  0.016  0.000  0.001  0.018
    7  0.016  0.000  0.001  0.018
    8  0.016  0.000  0.001  0.018
    9  0.016  0.000  0.001  0.018
   10  0.009  0.002  0.003  0.014
   11  0.010  0.002  0.002  0.014
   12  0.009  0.002  0.003  0.014
   13  0.010  0.002  0.002  0.014
   14  0.010  0.002  0.002  0.014
   15  0.009  0.002  0.003  0.013
   16  0.009  0.002  0.003  0.014
   17  0.009  0.002  0.003  0.013
   18  0.009  0.002  0.003  0.013
   19  0.017  0.001  0.004  0.022
   20  0.014  0.001  0.004  0.019
   21  0.014  0.001  0.004  0.019
   22  0.017  0.001  0.003  0.021
   23  0.014  0.001  0.004  0.019
   24  0.017  0.001  0.003  0.021
   25  0.017  0.001  0.004  0.022
   26  0.017  0.001  0.004  0.022
   27  0.017  0.001  0.003  0.021
   28  0.016  0.001  0.000  0.017
   29  0.014  0.001  0.000  0.015
   30  0.014  0.001  0.000  0.015
   31  0.014  0.001  0.000  0.015
   32  0.014  0.001  0.000  0.015
   33  0.014  0.001  0.000  0.015
   34  0.014  0.001  0.000  0.015
   35  0.016  0.001  0.000  0.017
   36  0.007  0.000  0.000  0.008
tot    0.494  0.032  0.072  0.597
 
band     3 # energy   -5.98474958 # occ.  2.00000000
 
ion      s      p      d    tot
    1  0.018  0.000  0.022  0.041
    2  0.021  0.000  0.020  0.042
    3  0.021  0.000  0.020  0.042
    4  0.021  0.000  0.020  0.042
    5  0.020  0.000  0.020  0.040
    6  0.021  0.000  0.020  0.042
    7  0.021  0.000  0.020  0.042
    8  0.021  0.000  0.020  0.042
    9  0.026  0.000  0.019  0.045
   10  0.011  0.001  0.023  0.034
   11  0.010  0.001  0.023  0.034
   12  0.011  0.001  0.023  0.034
   13  0.010  0.001  0.023  0.034
   14  0.010  0.001  0.023  0.034
   15  0.005  0.001  0.025  0.030
   16  0.011  0.001  0.023  0.034
   17  0.005  0.001  0.025  0.030
   18  0.005  0.001  0.025  0.030
   19  0.000  0.001  0.002  0.003
   20  0.000  0.001  0.003  0.003
   21  0.000  0.001  0.003  0.003
   22  0.001  0.000  0.001  0.003
   23  0.000  0.001  0.003  0.003
   24  0.001  0.000  0.001  0.003
   25  0.000  0.001  0.002  0.003
   26  0.000  0.001  0.002  0.003
   27  0.001  0.000  0.001  0.003
   28  0.003  0.000  0.000  0.003
   29  0.002  0.000  0.001  0.002
   30  0.002  0.000  0.001  0.002
   31  0.002  0.000  0.001  0.002
   32  0.002  0.000  0.001  0.002
   33  0.002  0.000  0.001  0.002
   34  0.002  0.000  0.001  0.002
   35  0.003  0.000  0.000  0.004
   36  0.000  0.000  0.000  0.001
tot    0.286  0.012  0.421  0.718
 
band     4 # energy   -5.94127788 # occ.  2.00000000
 
ion      s      p      d    tot
    1  0.016  0.002  0.001  0.018
    2  0.000  0.001  0.006  0.007
    3  0.000  0.001  0.006  0.007
    4  0.000  0.001  0.006  0.007
    5  0.008  0.001  0.003  0.012
    6  0.000  0.001  0.006  0.007
    7  0.000  0.001  0.006  0.007
    8  0.000  0.001  0.006  0.007
    9  0.000  0.000  0.000  0.000
   10  0.029  0.003  0.005  0.037
   11  0.015  0.000  0.029  0.044
   12  0.028  0.003  0.005  0.037
   13  0.015  0.000  0.029  0.044
   14  0.015  0.000  0.028  0.044
   15  0.004  0.002  0.017  0.023
   16  0.028  0.003  0.005  0.037
   17  0.004  0.002  0.017  0.023
   18  0.004  0.002  0.017  0.023
   19  0.024  0.003  0.003  0.030
   20  0.000  0.001  0.019  0.021
   21  0.000  0.001  0.019  0.021
   22  0.016  0.000  0.021  0.037
   23  0.000  0.001  0.019  0.021
   24  0.016  0.000  0.021  0.037
   25  0.023  0.003  0.003  0.029
   26  0.024  0.003  0.003  0.030
   27  0.016  0.000  0.021  0.037
   28  0.007  0.001  0.001  0.008
   29  0.000  0.000  0.004  0.004
   30  0.000  0.000  0.004  0.004
   31  0.000  0.000  0.004  0.004
   32  0.000  0.000  0.004  0.004
   33  0.000  0.000  0.004  0.004
   34  0.000  0.000  0.004  0.004
   35  0.010  0.001  0.001  0.012
   36  0.000  0.000  0.001  0.001
tot    0.303  0.042  0.347  0.692
 
band     5 # energy   -5.93622719 # occ.  2.00000000
 
ion      s      p      d    tot
    1  0.000  0.001  0.003  0.004
    2  0.003  0.001  0.003  0.007
    3  0.001  0.000  0.004  0.005
    4  0.004  0.001  0.003  0.008
    5  0.000  0.000  0.004  0.004
    6  0.008  0.001  0.004  0.013
    7  0.001  0.000  0.004  0.005
    8  0.008  0.001  0.004  0.013
    9  0.000  0.001  0.011  0.012
   10  0.000  0.005  0.006  0.010
   11  0.005  0.001  0.012  0.018
   12  0.021  0.001  0.014  0.036
   13  0.005  0.001  0.012  0.018
   14  0.000  0.002  0.023  0.025
   15  0.047  0.002  0.014  0.063
   16  0.022  0.001  0.014  0.037
   17  0.045  0.002  0.015  0.062
   18  0.000  0.001  0.044  0.045
   19  0.033  0.002  0.011  0.046
   20  0.000  0.002  0.010  0.012
   21  0.000  0.001  0.010  0.012
   22  0.025  0.001  0.013  0.039
   23  0.000  0.001  0.010  0.012
   24  0.000  0.004  0.014  0.018
   25  0.000  0.000  0.037  0.038
   26  0.032  0.002  0.012  0.046
   27  0.026  0.001  0.013  0.040
   28  0.000  0.001  0.007  0.007
   29  0.005  0.001  0.002  0.008
   30  0.002  0.000  0.003  0.005
   31  0.005  0.001  0.002  0.008
   32  0.001  0.000  0.002  0.003
   33  0.002  0.000  0.003  0.005
   34  0.001  0.000  0.002  0.003
   35  0.000  0.001  0.004  0.004
   36  0.000  0.000  0.000  0.000
tot    0.302  0.042  0.350  0.693
 
band     6 # energy   -5.93620700 # occ.  2.00000000
 
ion      s      p      d    tot
    1  0.000  0.001  0.003  0.004
    2  0.005  0.001  0.004  0.010
    3  0.007  0.001  0.003  0.012
    4  0.005  0.001  0.004  0.010
    5  0.000  0.000  0.004  0.004
    6  0.000  0.000  0.003  0.004
    7  0.007  0.001  0.003  0.012
    8  0.000  0.000  0.003  0.004
    9  0.000  0.001  0.011  0.012
   10  0.028  0.000  0.017  0.045
   11  0.002  0.002  0.019  0.023
   12  0.008  0.004  0.009  0.020
   13  0.002  0.001  0.019  0.022
   14  0.007  0.001  0.009  0.016
   15  0.015  0.001  0.035  0.051
   16  0.007  0.004  0.008  0.019
   17  0.016  0.001  0.034  0.051
   18  0.061  0.002  0.005  0.068
   19  0.010  0.001  0.029  0.040
   20  0.001  0.001  0.010  0.011
   21  0.000  0.002  0.010  0.012
   22  0.009  0.003  0.013  0.025
   23  0.000  0.002  0.010  0.012
   24  0.034  0.000  0.012  0.047
   25  0.044  0.002  0.003  0.049
   26  0.011  0.001  0.028  0.041
   27  0.008  0.003  0.013  0.025
   28  0.000  0.001  0.007  0.007
   29  0.000  0.000  0.002  0.002
   30  0.003  0.001  0.002  0.006
   31  0.000  0.000  0.002  0.002
   32  0.004  0.001  0.003  0.008
   33  0.003  0.001  0.002  0.006
   34  0.004  0.001  0.003  0.008
   35  0.000  0.001  0.004  0.004
   36  0.000  0.000  0.000  0.000
tot    0.302  0.042  0.350  0.693
 
band     7 # energy   -5.92556204 # occ.  2.00000000
 
ion      s      p      d    tot
    1  0.000  0.000  0.009  0.010
    2  0.004  0.001  0.003  0.008
    3  0.001  0.000  0.004  0.005
    4  0.004  0.001  0.003  0.008
    5  0.000  0.001  0.008  0.010
    6  0.008  0.001  0.004  0.014
    7  0.001  0.000  0.004  0.005
    8  0.008  0.001  0.004  0.014
    9  0.000  0.000  0.001  0.002
   10  0.037  0.002  0.003  0.043
   11  0.014  0.003  0.022  0.039
   12  0.010  0.001  0.034  0.045
   13  0.015  0.003  0.022  0.039
   14  0.058  0.001  0.012  0.071
   15  0.001  0.003  0.007  0.011
   16  0.009  0.000  0.035  0.045
   17  0.001  0.003  0.007  0.011
   18  0.002  0.000  0.016  0.019
   19  0.002  0.003  0.006  0.011
   20  0.050  0.002  0.007  0.058
   21  0.013  0.002  0.024  0.038
   22  0.005  0.001  0.021  0.027
   23  0.012  0.002  0.024  0.038
   24  0.018  0.002  0.005  0.025
   25  0.009  0.000  0.014  0.023
   26  0.002  0.003  0.006  0.011
   27  0.004  0.001  0.022  0.027
   28  0.000  0.000  0.001  0.001
   29  0.005  0.001  0.002  0.008
   30  0.001  0.000  0.002  0.004
   31  0.005  0.001  0.002  0.008
   32  0.001  0.000  0.002  0.003
   33  0.001  0.000  0.002  0.004
   34  0.001  0.000  0.002  0.003
   35  0.000  0.000  0.004  0.004
   36  0.000  0.001  0.003  0.004
tot    0.302  0.042  0.349  0.694
 
band     8 # energy   -5.92554157 # occ.  2.00000000
 
ion      s      p      d    tot
    1  0.000  0.000  0.009  0.010
    2  0.005  0.001  0.004  0.010
    3  0.008  0.001  0.004  0.013
    4  0.005  0.001  0.004  0.010
    5  0.000  0.001  0.008  0.010
    6  0.000  0.000  0.003  0.004
    7  0.008  0.001  0.004  0.013
    8  0.000  0.000  0.003  0.004
    9  0.000  0.000  0.001  0.002
   10  0.000  0.000  0.045  0.045
   11  0.044  0.001  0.015  0.060
   12  0.028  0.001  0.014  0.043
   13  0.043  0.001  0.015  0.060
   14  0.000  0.003  0.025  0.028
   15  0.002  0.001  0.013  0.016
   16  0.028  0.001  0.013  0.043
   17  0.002  0.001  0.013  0.016
   18  0.000  0.004  0.005  0.009
   19  0.007  0.001  0.011  0.019
   20  0.000  0.002  0.030  0.032
   21  0.037  0.002  0.012  0.051
   22  0.014  0.001  0.011  0.026
   23  0.038  0.002  0.012  0.052
   24  0.000  0.000  0.027  0.027
   25  0.000  0.004  0.004  0.008
   26  0.006  0.001  0.011  0.019
   27  0.014  0.001  0.010  0.026
   28  0.000  0.000  0.001  0.001
   29  0.000  0.000  0.002  0.002
   30  0.003  0.001  0.002  0.006
   31  0.000  0.000  0.002  0.002
   32  0.004  0.001  0.003  0.007
   33  0.003  0.001  0.002  0.006
   34  0.004  0.001  0.003  0.007
   35  0.000  0.000  0.004  0.004
   36  0.000  0.001  0.003  0.004
tot    0.302  0.042  0.349  0.694
 
band     9 # energy   -5.91532889 # occ.  2.00000000
 
ion      s      p      d    tot
    1  0.002  0.000  0.000  0.003
    2  0.000  0.001  0.006  0.007
    3  0.000  0.001  0.006  0.007
    4  0.000  0.001  0.006  0.007
    5  0.009  0.001  0.000  0.010
    6  0.000  0.001  0.006  0.007
    7  0.000  0.001  0.006  0.007
    8  0.000  0.001  0.006  0.007
    9  0.013  0.002  0.004  0.019
   10  0.000  0.001  0.031  0.031
   11  0.014  0.003  0.007  0.024
   12  0.000  0.001  0.031  0.031
   13  0.014  0.003  0.007  0.024
   14  0.014  0.003  0.007  0.024
   15  0.032  0.001  0.015  0.048
   16  0.000  0.001  0.031  0.031
   17  0.032  0.001  0.015  0.048
   18  0.032  0.001  0.015  0.048
   19  0.001  0.000  0.028  0.029
   20  0.031  0.002  0.005  0.038
   21  0.031  0.002  0.005  0.038
   22  0.003  0.002  0.014  0.019
   23  0.031  0.002  0.005  0.038
   24  0.003  0.002  0.014  0.019
   25  0.001  0.000  0.028  0.029
   26  0.001  0.000  0.028  0.029
   27  0.003  0.002  0.014  0.019
   28  0.008  0.000  0.000  0.009
   29  0.002  0.000  0.005  0.007
   30  0.002  0.000  0.005  0.007
   31  0.002  0.000  0.005  0.007
   32  0.002  0.000  0.005  0.007
   33  0.002  0.000  0.005  0.007
   34  0.002  0.000  0.005  0.007
   35  0.006  0.000  0.002  0.008
   36  0.002  0.002  0.002  0.006
tot    0.292  0.038  0.374  0.703
 
band    10 # energy   -5.80543771 # occ.  2.00000000
 
ion      s      p      d    tot
    1  0.001  0.000  0.000  0.001
    2  0.000  0.000  0.001  0.001
    3  0.000  0.000  0.001  0.001
    4  0.000  0.000  0.001  0.001
    5  0.003  0.000  0.000  0.003
    6  0.000  0.000  0.001  0.002
    7  0.000  0.000  0.001  0.001
    8  0.000  0.000  0.001  0.002
    9  0.001  0.000  0.001  0.002
   10  0.001  0.000  0.006  0.007
   11  0.003  0.001  0.002  0.005
   12  0.001  0.000  0.006  0.007
   13  0.003  0.001  0.002  0.005
   14  0.003  0.001  0.002  0.005
   15  0.004  0.001  0.006  0.011
   16  0.001  0.000  0.006  0.007
   17  0.004  0.001  0.006  0.011
   18  0.004  0.001  0.006  0.011
   19  0.005  0.001  0.021  0.027
   20  0.001  0.000  0.024  0.025
   21  0.001  0.000  0.024  0.025
   22  0.011  0.002  0.024  0.036
   23  0.001  0.000  0.024  0.025
   24  0.011  0.002  0.024  0.036
   25  0.005  0.001  0.021  0.027
   26  0.005  0.001  0.021  0.027
   27  0.011  0.002  0.024  0.036
   28  0.028  0.000  0.025  0.052
   29  0.023  0.000  0.019  0.042
   30  0.023  0.000  0.019  0.042
   31  0.023  0.000  0.019  0.042
   32  0.023  0.000  0.019  0.042
   33  0.023  0.000  0.019  0.042
   34  0.023  0.000  0.019  0.042
   35  0.027  0.000  0.022  0.050
   36  0.009  0.000  0.006  0.016
tot    0.281  0.014  0.424  0.719
 
band    11 # energy   -5.44848233 # occ.  2.00000000
 
ion      s      p      d    tot
    1  0.011  0.002  0.002  0.015
    2  0.000  0.001  0.008  0.009
    3  0.000  0.001  0.008  0.009
    4  0.000  0.001  0.008  0.009
    5  0.001  0.000  0.002  0.002
    6  0.000  0.001  0.008  0.009
    7  0.000  0.001  0.008  0.009
    8  0.000  0.001  0.008  0.009
    9  0.017  0.001  0.000  0.019
   10  0.009  0.002  0.012  0.023
   11  0.002  0.000  0.042  0.044
   12  0.009  0.002  0.012  0.022
   13  0.002  0.000  0.042  0.044
   14  0.002  0.000  0.041  0.044
   15  0.002  0.001  0.026  0.029
   16  0.009  0.002  0.012  0.022
   17  0.002  0.001  0.026  0.029
   18  0.002  0.001  0.025  0.029
   19  0.004  0.001  0.018  0.023
   20  0.003  0.000  0.044  0.047
   21  0.003  0.000  0.043  0.046
   22  0.013  0.002  0.015  0.030
   23  0.003  0.000  0.043  0.046
   24  0.013  0.002  0.015  0.030
   25  0.004  0.001  0.018  0.023
   26  0.004  0.001  0.018  0.023
   27  0.013  0.002  0.015  0.030
   28  0.012  0.001  0.000  0.013
   29  0.000  0.001  0.006  0.007
   30  0.000  0.001  0.006  0.007
   31  0.000  0.001  0.006  0.007
   32  0.000  0.001  0.006  0.007
   33  0.000  0.001  0.006  0.007
   34  0.000  0.001  0.006  0.007
   35  0.013  0.002  0.002  0.017
   36  0.000  0.000  0.001  0.001
tot    0.158  0.031  0.558  0.747
 
band    12 # energy   -5.44601049 # occ.  2.00000000
 
ion      s      p      d    tot
    1  0.000  0.001  0.014  0.015
    2  0.002  0.001  0.005  0.008
    3  0.010  0.001  0.005  0.016
    4  0.002  0.001  0.005  0.008
    5  0.000  0.000  0.008  0.008
    6  0.003  0.000  0.005  0.008
    7  0.010  0.001  0.005  0.016
    8  0.003  0.000  0.005  0.008
    9  0.000  0.001  0.004  0.005
   10  0.014  0.001  0.016  0.030
   11  0.000  0.001  0.014  0.015
   12  0.004  0.000  0.039  0.043
   13  0.000  0.001  0.014  0.015
   14  0.000  0.000  0.023  0.024
   15  0.003  0.001  0.044  0.048
   16  0.004  0.000  0.039  0.043
   17  0.003  0.001  0.045  0.048
   18  0.011  0.002  0.008  0.021
   19  0.006  0.000  0.052  0.059
   20  0.001  0.001  0.015  0.017
   21  0.000  0.001  0.027  0.029
   22  0.004  0.001  0.019  0.023
   23  0.000  0.001  0.027  0.029
   24  0.015  0.000  0.023  0.037
   25  0.025  0.001  0.005  0.032
   26  0.006  0.000  0.052  0.059
   27  0.004  0.001  0.019  0.023
   28  0.000  0.001  0.007  0.008
   29  0.003  0.001  0.003  0.006
   30  0.007  0.001  0.004  0.012
   31  0.003  0.001  0.003  0.006
   32  0.001  0.001  0.004  0.005
   33  0.007  0.001  0.004  0.012
   34  0.001  0.001  0.004  0.005
   35  0.000  0.001  0.008  0.009
   36  0.000  0.000  0.001  0.001
tot    0.150  0.029  0.572  0.751
 
band    13 # energy   -5.44599502 # occ.  2.00000000
 
ion      s      p      d    tot
    1  0.000  0.001  0.014  0.015
    2  0.008  0.001  0.004  0.013
    3  0.000  0.000  0.005  0.006
    4  0.008  0.001  0.004  0.013
    5  0.000  0.000  0.008  0.008
    6  0.007  0.001  0.005  0.013
    7  0.000  0.000  0.005  0.006
    8  0.007  0.001  0.005  0.013
    9  0.000  0.001  0.004  0.005
   10  0.000  0.000  0.047  0.047
   11  0.000  0.001  0.020  0.021
   12  0.011  0.001  0.023  0.035
   13  0.000  0.001  0.020  0.021
   14  0.000  0.001  0.012  0.013
   15  0.008  0.002  0.020  0.030
   16  0.010  0.001  0.024  0.035
   17  0.008  0.002  0.020  0.030
   18  0.000  0.000  0.057  0.057
   19  0.019  0.001  0.021  0.041
   20  0.000  0.001  0.031  0.032
   21  0.001  0.001  0.019  0.021
   22  0.011  0.000  0.021  0.033
   23  0.001  0.001  0.019  0.021
   24  0.000  0.001  0.017  0.018
   25  0.000  0.000  0.068  0.068
   26  0.019  0.001  0.021  0.041
   27  0.011  0.000  0.021  0.033
   28  0.000  0.001  0.007  0.008
   29  0.004  0.001  0.004  0.009
   30  0.000  0.000  0.003  0.004
   31  0.004  0.001  0.004  0.009
   32  0.006  0.001  0.003  0.010
   33  0.000  0.000  0.003  0.004
   34  0.006  0.001  0.003  0.010
   35  0.000  0.001  0.008  0.009
   36  0.000  0.000  0.001  0.001
tot    0.150  0.029  0.572  0.751
 
band    14 # energy   -5.43801940 # occ.  2.00000000
 
ion      s      p      d    tot
    1  0.000  0.000  0.004  0.004
    2  0.002  0.001  0.005  0.008
    3  0.010  0.001  0.004  0.015
    4  0.002  0.001  0.005  0.008
    5  0.000  0.001  0.009  0.010
    6  0.003  0.000  0.005  0.008
    7  0.010  0.001  0.004  0.015
    8  0.003  0.000  0.005  0.008
    9  0.000  0.000  0.013  0.013
   10  0.000  0.001  0.029  0.030
   11  0.013  0.002  0.022  0.036
   12  0.002  0.001  0.019  0.022
   13  0.013  0.002  0.022  0.036
   14  0.000  0.000  0.065  0.065
   15  0.005  0.000  0.023  0.028
   16  0.002  0.001  0.019  0.022
   17  0.005  0.000  0.023  0.028
   18  0.000  0.001  0.020  0.021
   19  0.002  0.001  0.020  0.023
   20  0.000  0.000  0.043  0.044
   21  0.020  0.001  0.021  0.041
   22  0.010  0.001  0.019  0.030
   23  0.020  0.001  0.021  0.041
   24  0.000  0.001  0.061  0.061
   25  0.000  0.002  0.010  0.012
   26  0.002  0.001  0.020  0.023
   27  0.010  0.001  0.020  0.030
   28  0.000  0.000  0.006  0.006
   29  0.003  0.001  0.003  0.006
   30  0.008  0.001  0.004  0.013
   31  0.003  0.001  0.003  0.006
   32  0.001  0.001  0.004  0.006
   33  0.008  0.001  0.004  0.013
   34  0.001  0.001  0.004  0.006
   35  0.000  0.001  0.004  0.005
   36  0.000  0.002  0.004  0.005
tot    0.154  0.030  0.567  0.751
 
band    15 # energy   -5.43800043 # occ.  2.00000000
 
ion      s      p      d    tot
    1  0.000  0.000  0.004  0.004
    2  0.008  0.001  0.004  0.013
    3  0.000  0.000  0.005  0.006
    4  0.008  0.001  0.004  0.013
    5  0.000  0.001  0.009  0.010
    6  0.007  0.001  0.005  0.013
    7  0.000  0.000  0.005  0.006
    8  0.007  0.001  0.005  0.013
    9  0.000  0.000  0.013  0.013
   10  0.002  0.002  0.016  0.020
   11  0.004  0.001  0.051  0.055
   12  0.001  0.001  0.026  0.028
   13  0.004  0.001  0.051  0.056
   14  0.017  0.002  0.008  0.026
   15  0.002  0.001  0.021  0.023
   16  0.001  0.001  0.026  0.028
   17  0.002  0.001  0.021  0.023
   18  0.007  0.000  0.023  0.030
   19  0.001  0.001  0.013  0.016
   20  0.026  0.001  0.013  0.041
   21  0.006  0.000  0.036  0.043
   22  0.003  0.001  0.047  0.051
   23  0.007  0.000  0.036  0.043
   24  0.013  0.001  0.006  0.020
   25  0.003  0.000  0.024  0.027
   26  0.001  0.001  0.013  0.015
   27  0.003  0.001  0.047  0.051
   28  0.000  0.000  0.006  0.006
   29  0.005  0.001  0.004  0.010
   30  0.000  0.000  0.003  0.004
   31  0.005  0.001  0.004  0.010
   32  0.007  0.001  0.003  0.011
   33  0.000  0.000  0.003  0.004
   34  0.007  0.001  0.003  0.011
   35  0.000  0.001  0.004  0.005
   36  0.000  0.002  0.004  0.005
tot    0.154  0.030  0.567  0.751
 
band    16 # energy   -5.40855649 # occ.  2.00000000
 
ion      s      p      d    tot
    1  0.013  0.001  0.001  0.015
    2  0.000  0.001  0.010  0.010
    3  0.000  0.001  0.010  0.010
    4  0.000  0.001  0.010  0.010
    5  0.017  0.002  0.001  0.020
    6  0.000  0.001  0.010  0.010
    7  0.000  0.001  0.010  0.010
    8  0.000  0.001  0.010  0.010
    9  0.000  0.000  0.002  0.003
   10  0.000  0.001  0.043  0.044
   11  0.005  0.002  0.013  0.020
   12  0.000  0.001  0.043  0.044
   13  0.005  0.002  0.013  0.020
   14  0.005  0.002  0.013  0.020
   15  0.004  0.000  0.029  0.033
   16  0.000  0.001  0.043  0.044
   17  0.004  0.000  0.029  0.033
   18  0.004  0.000  0.029  0.033
   19  0.010  0.001  0.048  0.058
   20  0.012  0.001  0.003  0.016
   21  0.012  0.001  0.003  0.016
   22  0.000  0.000  0.036  0.037
   23  0.012  0.001  0.003  0.016
   24  0.000  0.000  0.036  0.037
   25  0.010  0.001  0.048  0.058
   26  0.010  0.001  0.048  0.058
   27  0.000  0.000  0.036  0.037
   28  0.000  0.001  0.007  0.008
   29  0.000  0.000  0.004  0.005
   30  0.000  0.000  0.004  0.005
   31  0.000  0.000  0.004  0.005
   32  0.000  0.000  0.004  0.005
   33  0.000  0.000  0.004  0.005
   34  0.000  0.000  0.004  0.005
   35  0.001  0.000  0.000  0.001
   36  0.008  0.002  0.000  0.010
tot    0.133  0.024  0.611  0.769
 
band    17 # energy   -5.06976054 # occ.  2.00000000
 
ion      s      p      d    tot
    1  0.022  0.001  0.000  0.023
    2  0.000  0.001  0.023  0.024
    3  0.000  0.001  0.023  0.024
    4  0.000  0.001  0.023  0.024
    5  0.021  0.000  0.013  0.034
    6  0.000  0.001  0.023  0.023
    7  0.000  0.001  0.023  0.024
    8  0.000  0.001  0.023  0.023
    9  0.000  0.000  0.008  0.008
   10  0.000  0.000  0.030  0.031
   11  0.000  0.000  0.034  0.035
   12  0.000  0.000  0.030  0.030
   13  0.000  0.000  0.034  0.035
   14  0.000  0.000  0.034  0.035
   15  0.000  0.000  0.036  0.036
   16  0.000  0.000  0.030  0.030
   17  0.000  0.000  0.036  0.036
   18  0.000  0.000  0.036  0.036
   19  0.000  0.000  0.024  0.024
   20  0.000  0.000  0.015  0.016
   21  0.000  0.000  0.015  0.016
   22  0.001  0.000  0.026  0.027
   23  0.000  0.000  0.015  0.016
   24  0.001  0.000  0.025  0.027
   25  0.000  0.000  0.024  0.024
   26  0.000  0.000  0.024  0.024
   27  0.001  0.000  0.026  0.027
   28  0.013  0.001  0.001  0.015
   29  0.000  0.001  0.012  0.013
   30  0.000  0.001  0.012  0.013
   31  0.000  0.001  0.012  0.013
   32  0.000  0.001  0.012  0.013
   33  0.000  0.001  0.012  0.013
   34  0.000  0.001  0.012  0.013
   35  0.010  0.000  0.006  0.016
   36  0.000  0.000  0.001  0.001
tot    0.070  0.016  0.733  0.819
 
band    18 # energy   -5.06534747 # occ.  2.00000000
 
ion      s      p      d    tot
    1  0.000  0.001  0.009  0.010
    2  0.002  0.000  0.017  0.020
    3  0.014  0.001  0.014  0.028
    4  0.002  0.000  0.017  0.020
    5  0.000  0.000  0.035  0.035
    6  0.005  0.001  0.011  0.018
    7  0.014  0.001  0.014  0.028
    8  0.006  0.001  0.011  0.018
    9  0.000  0.001  0.020  0.021
   10  0.000  0.000  0.032  0.032
   11  0.000  0.000  0.020  0.020
   12  0.000  0.000  0.024  0.024
   13  0.000  0.000  0.020  0.020
   14  0.000  0.001  0.023  0.024
   15  0.000  0.000  0.058  0.058
   16  0.000  0.000  0.024  0.024
   17  0.000  0.000  0.058  0.058
   18  0.000  0.001  0.053  0.054
   19  0.000  0.000  0.019  0.020
   20  0.002  0.000  0.014  0.016
   21  0.001  0.000  0.008  0.008
   22  0.000  0.000  0.029  0.030
   23  0.000  0.000  0.007  0.008
   24  0.001  0.000  0.048  0.049
   25  0.000  0.000  0.019  0.020
   26  0.000  0.000  0.019  0.020
   27  0.000  0.000  0.029  0.030
   28  0.000  0.000  0.018  0.018
   29  0.002  0.000  0.009  0.012
   30  0.001  0.000  0.006  0.008
   31  0.002  0.000  0.009  0.012
   32  0.007  0.000  0.009  0.016
   33  0.001  0.000  0.006  0.008
   34  0.007  0.000  0.009  0.016
   35  0.000  0.001  0.017  0.017
   36  0.000  0.001  0.002  0.003
tot    0.070  0.017  0.734  0.821
 
band    19 # energy   -5.06534475 # occ.  2.00000000
 
ion      s      p      d    tot
    1  0.000  0.001  0.009  0.010
    2  0.012  0.001  0.011  0.024
    3  0.000  0.001  0.014  0.015
    4  0.012  0.001  0.011  0.024
    5  0.000  0.000  0.035  0.035
    6  0.009  0.001  0.017  0.026
    7  0.000  0.001  0.014  0.015
    8  0.008  0.001  0.017  0.026
    9  0.000  0.001  0.020  0.021
   10  0.000  0.000  0.021  0.021
   11  0.000  0.001  0.022  0.023
   12  0.000  0.000  0.029  0.029
   13  0.000  0.001  0.022  0.023
   14  0.000  0.000  0.019  0.019
   15  0.000  0.001  0.054  0.055
   16  0.000  0.000  0.029  0.030
   17  0.000  0.001  0.054  0.055
   18  0.000  0.000  0.059  0.059
   19  0.000  0.000  0.019  0.020
   20  0.000  0.000  0.005  0.005
   21  0.002  0.000  0.012  0.013
   22  0.001  0.000  0.042  0.043
   23  0.002  0.000  0.012  0.013
   24  0.000  0.000  0.023  0.023
   25  0.000  0.001  0.019  0.019
   26  0.000  0.000  0.019  0.020
   27  0.001  0.000  0.042  0.043
   28  0.000  0.000  0.018  0.018
   29  0.005  0.001  0.007  0.012
   30  0.006  0.000  0.010  0.016
   31  0.005  0.001  0.007  0.012
   32  0.000  0.000  0.007  0.008
   33  0.006  0.000  0.010  0.016
   34  0.000  0.000  0.007  0.008
   35  0.000  0.001  0.017  0.017
   36  0.000  0.001  0.002  0.003
tot    0.070  0.017  0.735  0.821
 
band    20 # energy   -5.04938109 # occ.  2.00000000
 
ion      s      p      d    tot
    1  0.000  0.000  0.034  0.034
    2  0.001  0.000  0.018  0.020
    3  0.012  0.001  0.014  0.027
    4  0.001  0.000  0.018  0.020
    5  0.000  0.002  0.008  0.009
    6  0.005  0.001  0.011  0.017
    7  0.012  0.001  0.014  0.027
    8  0.005  0.001  0.011  0.017
    9  0.000  0.000  0.020  0.020
   10  0.000  0.000  0.061  0.061
   11  0.000  0.000  0.053  0.053
   12  0.000  0.001  0.049  0.049
   13  0.000  0.000  0.053  0.053
   14  0.000  0.000  0.046  0.046
   15  0.000  0.000  0.021  0.021
   16  0.000  0.001  0.049  0.049
   17  0.000  0.000  0.020  0.021
   18  0.000  0.000  0.006  0.006
   19  0.002  0.000  0.032  0.034
   20  0.000  0.000  0.027  0.027
   21  0.000  0.000  0.032  0.032
   22  0.001  0.000  0.010  0.011
   23  0.000  0.000  0.032  0.032
   24  0.000  0.000  0.010  0.010
   25  0.000  0.000  0.019  0.019
   26  0.002  0.000  0.032  0.034
   27  0.001  0.000  0.010  0.011
   28  0.000  0.001  0.007  0.008
   29  0.001  0.000  0.005  0.006
   30  0.002  0.000  0.004  0.006
   31  0.001  0.000  0.005  0.006
   32  0.005  0.000  0.005  0.010
   33  0.002  0.000  0.004  0.006
   34  0.005  0.000  0.005  0.010
   35  0.000  0.000  0.010  0.010
   36  0.000  0.000  0.003  0.004
tot    0.058  0.015  0.755  0.828
 
band    21 # energy   -5.04937038 # occ.  2.00000000
 
ion      s      p      d    tot
    1  0.000  0.000  0.034  0.034
    2  0.011  0.001  0.011  0.022
    3  0.000  0.001  0.015  0.016
    4  0.011  0.001  0.011  0.022
    5  0.000  0.002  0.008  0.009
    6  0.007  0.000  0.018  0.026
    7  0.000  0.001  0.015  0.016
    8  0.007  0.000  0.018  0.026
    9  0.000  0.000  0.020  0.020
   10  0.000  0.001  0.045  0.045
   11  0.000  0.000  0.048  0.048
   12  0.000  0.000  0.057  0.057
   13  0.000  0.000  0.048  0.048
   14  0.000  0.000  0.055  0.055
   15  0.000  0.000  0.011  0.011
   16  0.000  0.000  0.057  0.057
   17  0.000  0.000  0.011  0.011
   18  0.000  0.000  0.025  0.026
   19  0.001  0.000  0.023  0.024
   20  0.000  0.000  0.034  0.034
   21  0.000  0.000  0.028  0.029
   22  0.000  0.000  0.010  0.010
   23  0.000  0.000  0.028  0.029
   24  0.001  0.000  0.009  0.011
   25  0.003  0.000  0.036  0.039
   26  0.001  0.000  0.023  0.024
   27  0.000  0.000  0.010  0.010
   28  0.000  0.001  0.007  0.008
   29  0.005  0.000  0.004  0.009
   30  0.003  0.000  0.005  0.009
   31  0.005  0.000  0.004  0.009
   32  0.000  0.000  0.004  0.005
   33  0.003  0.000  0.005  0.009
   34  0.000  0.000  0.004  0.005
   35  0.000  0.000  0.010  0.010
   36  0.000  0.000  0.003  0.004
tot    0.058  0.015  0.755  0.828
 
band    22 # energy   -5.03619853 # occ.  2.00000000
 
ion      s      p      d    tot
    1  0.001  0.000  0.017  0.018
    2  0.000  0.001  0.017  0.017
    3  0.000  0.001  0.017  0.017
    4  0.000  0.001  0.017  0.017
    5  0.014  0.001  0.003  0.019
    6  0.000  0.001  0.017  0.017
    7  0.000  0.001  0.017  0.017
    8  0.000  0.001  0.017  0.017
    9  0.023  0.001  0.006  0.029
   10  0.000  0.000  0.056  0.056
   11  0.000  0.001  0.051  0.052
   12  0.000  0.000  0.056  0.056
   13  0.000  0.001  0.051  0.052
   14  0.000  0.001  0.052  0.052
   15  0.000  0.000  0.029  0.029
   16  0.000  0.000  0.056  0.056