PROCAR new format
# of k-points:   10         # of bands:  252         # of ions:   39

 k-point     1 :    0.00000000 0.00000000 0.00000000     weight = 0.01562500

band     1 # energy  -25.13475551 # occ.  2.00000000
 
ion      s      p      d    tot
    1  0.000  0.000  0.000  0.000
    2  0.000  0.000  0.000  0.000
    3  0.000  0.000  0.000  0.000
    4  0.000  0.000  0.000  0.000
    5  0.000  0.000  0.000  0.000
    6  0.000  0.000  0.000  0.000
    7  0.000  0.000  0.000  0.000
    8  0.000  0.000  0.000  0.000
    9  0.000  0.000  0.000  0.000
   10  0.000  0.000  0.000  0.000
   11  0.000  0.000  0.000  0.000
   12  0.000  0.000  0.000  0.000
   13  0.000  0.000  0.000  0.000
   14  0.000  0.000  0.000  0.000
   15  0.000  0.000  0.000  0.000
   16  0.000  0.000  0.000  0.000
   17  0.000  0.000  0.000  0.000
   18  0.000  0.000  0.000  0.000
   19  0.000  0.000  0.000  0.000
   20  0.000  0.000  0.000  0.000
   21  0.000  0.000  0.000  0.000
   22  0.000  0.000  0.000  0.000
   23  0.000  0.000  0.000  0.000
   24  0.000  0.000  0.000  0.000
   25  0.000  0.000  0.000  0.000
   26  0.000  0.000  0.000  0.000
   27  0.000  0.000  0.000  0.000
   28  0.000  0.000  0.000  0.000
   29  0.000  0.000  0.000  0.000
   30  0.000  0.000  0.000  0.000
   31  0.000  0.000  0.000  0.000
   32  0.000  0.000  0.000  0.000
   33  0.000  0.000  0.000  0.000
   34  0.000  0.000  0.000  0.000
   35  0.000  0.000  0.000  0.000
   36  0.000  0.000  0.000  0.000
   37  0.080  0.059  0.000  0.139
   38  0.724  0.008  0.000  0.732
   39  0.058  0.012  0.000  0.070
tot    0.862  0.080  0.000  0.942
 
band     2 # energy  -15.77660087 # occ.  2.00000000
 
ion      s      p      d    tot
    1  0.000  0.000  0.000  0.000
    2  0.000  0.000  0.000  0.000
    3  0.000  0.000  0.000  0.000
    4  0.000  0.000  0.000  0.000
    5  0.000  0.000  0.000  0.000
    6  0.000  0.000  0.000  0.000
    7  0.000  0.000  0.000  0.000
    8  0.000  0.000  0.000  0.000
    9  0.000  0.000  0.000  0.000
   10  0.000  0.000  0.000  0.000
   11  0.000  0.000  0.000  0.000
   12  0.000  0.000  0.000  0.000
   13  0.000  0.000  0.000  0.000
   14  0.000  0.000  0.000  0.000
   15  0.000  0.000  0.000  0.000
   16  0.000  0.000  0.000  0.000
   17  0.000  0.000  0.000  0.000
   18  0.000  0.000  0.000  0.000
   19  0.000  0.000  0.000  0.000
   20  0.000  0.000  0.000  0.000
   21  0.000  0.000  0.000  0.000
   22  0.000  0.000  0.000  0.000
   23  0.000  0.000  0.000  0.000
   24  0.000  0.000  0.000  0.000
   25  0.000  0.000  0.000  0.000
   26  0.000  0.000  0.000  0.000
   27  0.000  0.000  0.000  0.000
   28  0.000  0.000  0.000  0.000
   29  0.000  0.000  0.000  0.000
   30  0.000  0.000  0.000  0.000
   31  0.000  0.000  0.000  0.000
   32  0.000  0.000  0.000  0.000
   33  0.000  0.000  0.000  0.000
   34  0.000  0.000  0.000  0.000
   35  0.000  0.000  0.000  0.000
   36  0.002  0.003  0.004  0.009
   37  0.159  0.049  0.000  0.208
   38  0.020  0.521  0.000  0.541
   39  0.199  0.031  0.000  0.230
tot    0.380  0.605  0.004  0.989
 
band     3 # energy   -9.05116547 # occ.  2.00000000
 
ion      s      p      d    tot
    1  0.001  0.000  0.000  0.001
    2  0.001  0.000  0.000  0.001
    3  0.001  0.000  0.000  0.001
    4  0.001  0.000  0.000  0.001
    5  0.001  0.000  0.000  0.001
    6  0.001  0.000  0.000  0.001
    7  0.001  0.000  0.000  0.001
    8  0.001  0.000  0.000  0.001
    9  0.001  0.000  0.000  0.001
   10  0.003  0.000  0.000  0.004
   11  0.004  0.000  0.000  0.004
   12  0.003  0.000  0.000  0.004
   13  0.004  0.000  0.000  0.004
   14  0.004  0.000  0.000  0.004
   15  0.003  0.000  0.000  0.003
   16  0.003  0.000  0.000  0.004
   17  0.003  0.000  0.000  0.003
   18  0.003  0.000  0.000  0.003
   19  0.005  0.000  0.000  0.005
   20  0.012  0.001  0.001  0.013
   21  0.012  0.001  0.001  0.013
   22  0.006  0.000  0.000  0.006
   23  0.012  0.001  0.001  0.013
   24  0.006  0.000  0.000  0.006
   25  0.005  0.000  0.000  0.005
   26  0.005  0.000  0.000  0.005
   27  0.006  0.000  0.000  0.006
   28  0.002  0.000  0.000  0.002
   29  0.004  0.000  0.000  0.004
   30  0.004  0.000  0.000  0.004
   31  0.004  0.000  0.000  0.004
   32  0.004  0.000  0.000  0.004
   33  0.004  0.000  0.000  0.004
   34  0.004  0.000  0.000  0.004
   35  0.002  0.000  0.000  0.002
   36  0.096  0.043  0.224  0.363
   37  0.145  0.143  0.000  0.288
   38  0.009  0.040  0.000  0.049
   39  0.011  0.001  0.000  0.012
tot    0.396  0.231  0.228  0.855
 
band     4 # energy   -8.58223147 # occ.  2.00000000
 
ion      s      p      d    tot
    1  0.007  0.001  0.000  0.008
    2  0.007  0.001  0.000  0.008
    3  0.007  0.001  0.000  0.008
    4  0.007  0.001  0.000  0.008
    5  0.007  0.001  0.000  0.007
    6  0.007  0.001  0.000  0.008
    7  0.007  0.001  0.000  0.008
    8  0.007  0.001  0.000  0.008
    9  0.007  0.001  0.000  0.008
   10  0.023  0.000  0.000  0.023
   11  0.022  0.000  0.000  0.022
   12  0.023  0.000  0.000  0.023
   13  0.022  0.000  0.000  0.022
   14  0.022  0.000  0.000  0.022
   15  0.023  0.000  0.000  0.023
   16  0.023  0.000  0.000  0.023
   17  0.023  0.000  0.000  0.023
   18  0.023  0.000  0.000  0.023
   19  0.019  0.000  0.000  0.019
   20  0.013  0.001  0.000  0.014
   21  0.013  0.001  0.000  0.014
   22  0.018  0.000  0.000  0.019
   23  0.013  0.001  0.000  0.014
   24  0.018  0.000  0.000  0.019
   25  0.019  0.000  0.000  0.019
   26  0.019  0.000  0.000  0.019
   27  0.018  0.000  0.000  0.019
   28  0.004  0.001  0.000  0.005
   29  0.003  0.001  0.000  0.004
   30  0.003  0.001  0.000  0.004
   31  0.003  0.001  0.000  0.004
   32  0.003  0.001  0.000  0.004
   33  0.003  0.001  0.000  0.004
   34  0.003  0.001  0.000  0.004
   35  0.004  0.001  0.000  0.005
   36  0.006  0.023  0.075  0.105
   37  0.044  0.040  0.000  0.084
   38  0.003  0.010  0.000  0.013
   39  0.003  0.000  0.000  0.003
tot    0.497  0.091  0.078  0.666
 
band     5 # energy   -7.90830463 # occ.  2.00000000
 
ion      s      p      d    tot
    1  0.000  0.000  0.000  0.000
    2  0.000  0.000  0.000  0.000
    3  0.000  0.000  0.000  0.000
    4  0.000  0.000  0.000  0.000
    5  0.000  0.000  0.000  0.000
    6  0.000  0.000  0.000  0.000
    7  0.000  0.000  0.000  0.000
    8  0.000  0.000  0.000  0.000
    9  0.000  0.000  0.000  0.000
   10  0.000  0.000  0.000  0.000
   11  0.000  0.000  0.000  0.000
   12  0.000  0.000  0.000  0.000
   13  0.000  0.000  0.000  0.000
   14  0.000  0.000  0.000  0.000
   15  0.000  0.000  0.000  0.000
   16  0.000  0.000  0.000  0.000
   17  0.000  0.000  0.000  0.000
   18  0.000  0.000  0.000  0.000
   19  0.000  0.000  0.000  0.000
   20  0.000  0.000  0.000  0.000
   21  0.000  0.000  0.000  0.000
   22  0.000  0.000  0.000  0.000
   23  0.000  0.000  0.000  0.000
   24  0.000  0.000  0.000  0.000
   25  0.000  0.000  0.000  0.000
   26  0.000  0.000  0.000  0.000
   27  0.000  0.000  0.000  0.000
   28  0.000  0.000  0.000  0.000
   29  0.000  0.000  0.000  0.001
   30  0.000  0.000  0.000  0.000
   31  0.000  0.000  0.000  0.001
   32  0.000  0.000  0.000  0.001
   33  0.000  0.000  0.000  0.000
   34  0.000  0.000  0.000  0.001
   35  0.000  0.000  0.000  0.000
   36  0.000  0.002  0.024  0.027
   37  0.000  0.119  0.000  0.119
   38  0.000  0.531  0.000  0.531
   39  0.000  0.007  0.000  0.007
tot    0.001  0.660  0.026  0.687
 
band     6 # energy   -7.90814997 # occ.  2.00000000
 
ion      s      p      d    tot
    1  0.000  0.000  0.000  0.000
    2  0.000  0.000  0.000  0.000
    3  0.000  0.000  0.000  0.000
    4  0.000  0.000  0.000  0.000
    5  0.000  0.000  0.000  0.000
    6  0.000  0.000  0.000  0.000
    7  0.000  0.000  0.000  0.000
    8  0.000  0.000  0.000  0.000
    9  0.000  0.000  0.000  0.000
   10  0.000  0.000  0.000  0.000
   11  0.000  0.000  0.000  0.000
   12  0.000  0.000  0.000  0.000
   13  0.000  0.000  0.000  0.000
   14  0.000  0.000  0.000  0.000
   15  0.000  0.000  0.000  0.000
   16  0.000  0.000  0.000  0.000
   17  0.000  0.000  0.000  0.000
   18  0.000  0.000  0.000  0.000
   19  0.000  0.000  0.000  0.000
   20  0.000  0.000  0.000  0.000
   21  0.000  0.000  0.000  0.000
   22  0.000  0.000  0.000  0.000
   23  0.000  0.000  0.000  0.000
   24  0.000  0.000  0.000  0.000
   25  0.000  0.000  0.000  0.000
   26  0.000  0.000  0.000  0.000
   27  0.000  0.000  0.000  0.000
   28  0.000  0.000  0.000  0.000
   29  0.000  0.000  0.000  0.000
   30  0.000  0.000  0.000  0.001
   31  0.000  0.000  0.000  0.000
   32  0.000  0.000  0.000  0.000
   33  0.000  0.000  0.000  0.001
   34  0.000  0.000  0.000  0.000
   35  0.000  0.000  0.000  0.000
   36  0.000  0.002  0.024  0.027
   37  0.000  0.119  0.000  0.119
   38  0.000  0.531  0.000  0.531
   39  0.000  0.007  0.000  0.007
tot    0.001  0.660  0.026  0.687
 
band     7 # energy   -7.34920604 # occ.  2.00000000
 
ion      s      p      d    tot
    1  0.017  0.001  0.001  0.019
    2  0.017  0.001  0.001  0.018
    3  0.017  0.001  0.001  0.018
    4  0.017  0.001  0.001  0.018
    5  0.017  0.001  0.001  0.019
    6  0.017  0.001  0.001  0.018
    7  0.017  0.001  0.001  0.018
    8  0.017  0.001  0.001  0.018
    9  0.017  0.001  0.001  0.018
   10  0.008  0.002  0.000  0.011
   11  0.009  0.002  0.000  0.012
   12  0.008  0.002  0.000  0.011
   13  0.009  0.002  0.000  0.012
   14  0.009  0.002  0.000  0.012
   15  0.008  0.002  0.001  0.011
   16  0.008  0.002  0.000  0.011
   17  0.008  0.002  0.001  0.011
   18  0.008  0.002  0.001  0.011
   19  0.013  0.002  0.001  0.015
   20  0.008  0.002  0.001  0.010
   21  0.008  0.002  0.001  0.010
   22  0.012  0.002  0.001  0.015
   23  0.008  0.002  0.001  0.010
   24  0.012  0.002  0.001  0.015
   25  0.013  0.002  0.001  0.015
   26  0.013  0.002  0.001  0.015
   27  0.012  0.002  0.001  0.015
   28  0.021  0.001  0.000  0.022
   29  0.018  0.001  0.001  0.020
   30  0.018  0.001  0.001  0.020
   31  0.018  0.001  0.001  0.020
   32  0.018  0.001  0.001  0.020
   33  0.018  0.001  0.001  0.020
   34  0.018  0.001  0.001  0.020
   35  0.021  0.001  0.000  0.022
   36  0.007  0.006  0.027  0.040
   37  0.006  0.005  0.000  0.010
   38  0.000  0.001  0.000  0.001
   39  0.000  0.000  0.000  0.000
tot    0.492  0.064  0.047  0.603
 
band     8 # energy   -5.82775611 # occ.  2.00000000
 
ion      s      p      d    tot
    1  0.016  0.000  0.005  0.022
    2  0.015  0.000  0.005  0.020
    3  0.015  0.000  0.005  0.020
    4  0.015  0.000  0.005  0.020
    5  0.008  0.000  0.006  0.015
    6  0.015  0.000  0.005  0.020
    7  0.015  0.000  0.005  0.020
    8  0.015  0.000  0.005  0.020
    9  0.022  0.000  0.004  0.026
   10  0.003  0.003  0.002  0.008
   11  0.009  0.004  0.001  0.014
   12  0.003  0.003  0.002  0.008
   13  0.009  0.004  0.001  0.014
   14  0.009  0.004  0.001  0.014
   15  0.000  0.003  0.003  0.006
   16  0.003  0.003  0.002  0.008
   17  0.000  0.003  0.003  0.006
   18  0.000  0.003  0.003  0.006
   19  0.002  0.003  0.004  0.009
   20  0.016  0.004  0.003  0.023
   21  0.016  0.004  0.003  0.023
   22  0.001  0.003  0.004  0.008
   23  0.016  0.004  0.003  0.023
   24  0.001  0.003  0.004  0.008
   25  0.002  0.003  0.004  0.009
   26  0.002  0.003  0.004  0.009
   27  0.001  0.003  0.004  0.008
   28  0.019  0.000  0.005  0.025
   29  0.017  0.000  0.007  0.024
   30  0.017  0.000  0.007  0.024
   31  0.017  0.000  0.007  0.024
   32  0.017  0.000  0.007  0.024
   33  0.017  0.000  0.007  0.024
   34  0.017  0.000  0.007  0.024
   35  0.022  0.000  0.005  0.028
   36  0.010  0.002  0.031  0.044
   37  0.000  0.000  0.000  0.000
   38  0.000  0.000  0.000  0.001
   39  0.000  0.000  0.000  0.000
tot    0.383  0.067  0.185  0.634
 
band     9 # energy   -5.73703736 # occ.  2.00000000
 
ion      s      p      d    tot
    1  0.000  0.002  0.005  0.007
    2  0.009  0.002  0.002  0.013
    3  0.002  0.001  0.002  0.004
    4  0.009  0.002  0.002  0.013
    5  0.000  0.002  0.003  0.005
    6  0.003  0.001  0.002  0.006
    7  0.002  0.001  0.002  0.004
    8  0.003  0.001  0.002  0.006
    9  0.000  0.000  0.002  0.002
   10  0.056  0.004  0.004  0.064
   11  0.006  0.009  0.004  0.019
   12  0.014  0.002  0.011  0.028
   13  0.006  0.009  0.004  0.019
   14  0.024  0.000  0.006  0.031
   15  0.002  0.004  0.007  0.013
   16  0.014  0.002  0.011  0.028
   17  0.002  0.004  0.007  0.013
   18  0.006  0.003  0.003  0.012
   19  0.007  0.010  0.003  0.021
   20  0.066  0.004  0.005  0.075
   21  0.016  0.002  0.014  0.033
   22  0.001  0.005  0.008  0.014
   23  0.017  0.002  0.014  0.033
   24  0.006  0.003  0.003  0.012
   25  0.029  0.000  0.007  0.036
   26  0.007  0.010  0.003  0.020
   27  0.001  0.005  0.008  0.014
   28  0.000  0.003  0.004  0.007
   29  0.011  0.003  0.003  0.017
   30  0.005  0.001  0.003  0.009
   31  0.011  0.003  0.003  0.017
   32  0.001  0.001  0.003  0.006
   33  0.005  0.001  0.003  0.009
   34  0.001  0.001  0.003  0.006
   35  0.000  0.000  0.003  0.003
   36  0.000  0.004  0.029  0.033
   37  0.000  0.000  0.000  0.000
   38  0.000  0.001  0.000  0.001
   39  0.000  0.000  0.000  0.000
tot    0.339  0.113  0.199  0.652
 
band    10 # energy   -5.73680423 # occ.  2.00000000
 
ion      s      p      d    tot
    1  0.000  0.002  0.005  0.007
    2  0.000  0.001  0.002  0.003
    3  0.007  0.002  0.002  0.011
    4  0.000  0.001  0.002  0.003
    5  0.000  0.002  0.003  0.005
    6  0.006  0.002  0.002  0.010
    7  0.007  0.002  0.002  0.011
    8  0.006  0.002  0.002  0.010
    9  0.000  0.000  0.002  0.002
   10  0.000  0.002  0.014  0.016
   11  0.018  0.003  0.005  0.027
   12  0.042  0.004  0.006  0.052
   13  0.018  0.003  0.005  0.027
   14  0.000  0.012  0.003  0.015
   15  0.005  0.003  0.004  0.012
   16  0.042  0.004  0.006  0.051
   17  0.005  0.003  0.004  0.012
   18  0.000  0.005  0.009  0.013
   19  0.021  0.004  0.006  0.030
   20  0.000  0.002  0.017  0.019
   21  0.050  0.003  0.008  0.061
   22  0.004  0.003  0.005  0.013
   23  0.050  0.003  0.008  0.061
   24  0.000  0.006  0.009  0.015
   25  0.000  0.013  0.002  0.015
   26  0.021  0.004  0.006  0.030
   27  0.004  0.003  0.005  0.013
   28  0.000  0.003  0.004  0.007
   29  0.000  0.001  0.003  0.004
   30  0.007  0.002  0.003  0.013
   31  0.000  0.001  0.003  0.004
   32  0.010  0.003  0.003  0.015
   33  0.007  0.002  0.003  0.013
   34  0.010  0.003  0.003  0.015
   35  0.000  0.000  0.003  0.003
   36  0.000  0.004  0.029  0.034
   37  0.000  0.000  0.000  0.000
   38  0.000  0.001  0.000  0.001
   39  0.000  0.000  0.000  0.000
tot    0.339  0.113  0.199  0.652
 
band    11 # energy   -5.70303004 # occ.  2.00000000
 
ion      s      p      d    tot
    1  0.000  0.001  0.002  0.003
    2  0.009  0.002  0.002  0.014
    3  0.002  0.001  0.002  0.005
    4  0.009  0.002  0.002  0.014
    5  0.000  0.001  0.004  0.005
    6  0.003  0.001  0.002  0.006
    7  0.002  0.001  0.002  0.005
    8  0.003  0.001  0.002  0.006
    9  0.000  0.003  0.005  0.008
   10  0.000  0.011  0.003  0.014
   11  0.025  0.003  0.005  0.034
   12  0.001  0.003  0.005  0.009
   13  0.025  0.003  0.005  0.034
   14  0.000  0.000  0.015  0.015
   15  0.039  0.004  0.006  0.049
   16  0.001  0.003  0.005  0.009
   17  0.039  0.004  0.006  0.049
   18  0.000  0.008  0.009  0.017
   19  0.027  0.004  0.006  0.036
   20  0.000  0.013  0.001  0.015
   21  0.002  0.004  0.005  0.011
   22  0.044  0.004  0.006  0.054
   23  0.002  0.004  0.005  0.011
   24  0.000  0.008  0.009  0.017
   25  0.000  0.000  0.016  0.017
   26  0.027  0.004  0.006  0.036
   27  0.044  0.004  0.006  0.054
   28  0.000  0.001  0.005  0.006
   29  0.013  0.003  0.003  0.018
   30  0.003  0.002  0.003  0.008
   31  0.013  0.003  0.003  0.018
   32  0.003  0.001  0.003  0.007
   33  0.003  0.002  0.003  0.008
   34  0.003  0.001  0.003  0.007
   35  0.000  0.004  0.006  0.010
   36  0.000  0.001  0.012  0.013
   37  0.000  0.000  0.000  0.000
   38  0.000  0.000  0.000  0.000
   39  0.000  0.000  0.000  0.000
tot    0.344  0.116  0.181  0.641
 
band    12 # energy   -5.70280583 # occ.  2.00000000
 
ion      s      p      d    tot
    1  0.000  0.001  0.002  0.003
    2  0.000  0.001  0.002  0.003
    3  0.008  0.002  0.002  0.012
    4  0.000  0.001  0.002  0.003
    5  0.000  0.001  0.004  0.005
    6  0.006  0.002  0.002  0.010
    7  0.008  0.002  0.002  0.012
    8  0.006  0.002  0.002  0.010
    9  0.000  0.003  0.005  0.008
   10  0.002  0.001  0.005  0.008
   11  0.009  0.001  0.012  0.022
   12  0.000  0.008  0.003  0.012
   13  0.009  0.001  0.012  0.022
   14  0.034  0.004  0.002  0.040
   15  0.013  0.007  0.008  0.027
   16  0.000  0.008  0.003  0.012
   17  0.013  0.007  0.008  0.027
   18  0.053  0.002  0.006  0.060
   19  0.009  0.001  0.013  0.023
   20  0.003  0.001  0.006  0.010
   21  0.001  0.010  0.002  0.013
   22  0.015  0.007  0.008  0.030
   23  0.001  0.010  0.002  0.013
   24  0.058  0.002  0.005  0.066
   25  0.035  0.005  0.002  0.042
   26  0.009  0.001  0.013  0.023
   27  0.015  0.007  0.008  0.030
   28  0.000  0.001  0.005  0.006
   29  0.000  0.001  0.003  0.004
   30  0.009  0.002  0.003  0.014
   31  0.000  0.001  0.003  0.004
   32  0.010  0.003  0.003  0.015
   33  0.009  0.002  0.003  0.014
   34  0.010  0.003  0.003  0.016
   35  0.000  0.004  0.006  0.010
   36  0.000  0.001  0.012  0.013
   37  0.000  0.000  0.000  0.000
   38  0.000  0.000  0.000  0.000
   39  0.000  0.000  0.000  0.000
tot    0.344  0.116  0.181  0.641
 
band    13 # energy   -5.69290106 # occ.  2.00000000
 
ion      s      p      d    tot
    1  0.021  0.003  0.001  0.025
    2  0.000  0.002  0.004  0.006
    3  0.000  0.002  0.004  0.006
    4  0.000  0.002  0.004  0.006
    5  0.001  0.000  0.000  0.002
    6  0.000  0.002  0.004  0.006
    7  0.000  0.002  0.004  0.006
    8  0.000  0.002  0.004  0.006
    9  0.010  0.002  0.000  0.012
   10  0.029  0.005  0.006  0.041
   11  0.004  0.000  0.011  0.016
   12  0.029  0.005  0.006  0.041
   13  0.004  0.000  0.011  0.016
   14  0.004  0.000  0.011  0.016
   15  0.014  0.008  0.003  0.025
   16  0.029  0.005  0.006  0.041
   17  0.014  0.008  0.003  0.025
   18  0.013  0.008  0.003  0.024
   19  0.021  0.009  0.002  0.033
   20  0.000  0.002  0.010  0.012
   21  0.000  0.002  0.010  0.012
   22  0.025  0.003  0.009  0.037
   23  0.000  0.002  0.010  0.012
   24  0.026  0.003  0.009  0.038
   25  0.022  0.009  0.002  0.033
   26  0.021  0.009  0.002  0.033
   27  0.025  0.003  0.009  0.037
   28  0.019  0.003  0.000  0.022
   29  0.000  0.002  0.004  0.006
   30  0.000  0.002  0.004  0.006
   31  0.000  0.002  0.004  0.006
   32  0.000  0.002  0.004  0.006
   33  0.000  0.002  0.004  0.006
   34  0.000  0.002  0.004  0.006
   35  0.014  0.003  0.001  0.017
   36  0.000  0.000  0.000  0.000
   37  0.000  0.000  0.000  0.000
   38  0.000  0.000  0.000  0.000
   39  0.000  0.000  0.000  0.000
tot    0.347  0.116  0.177  0.639
 
band    14 # energy   -5.60159081 # occ.  2.00000000
 
ion      s      p      d    tot
    1  0.000  0.000  0.001  0.001
    2  0.001  0.002  0.006  0.009
    3  0.001  0.002  0.006  0.009
    4  0.001  0.002  0.006  0.009
    5  0.035  0.003  0.000  0.039
    6  0.001  0.002  0.006  0.009
    7  0.001  0.002  0.006  0.009
    8  0.001  0.002  0.006  0.009
    9  0.006  0.002  0.003  0.011
   10  0.003  0.005  0.009  0.016
   11  0.024  0.009  0.003  0.037
   12  0.003  0.005  0.009  0.016
   13  0.024  0.009  0.003  0.037
   14  0.024  0.009  0.003  0.037
   15  0.025  0.001  0.012  0.039
   16  0.003  0.005  0.009  0.016
   17  0.025  0.001  0.012  0.039
   18  0.025  0.001  0.012  0.039
   19  0.009  0.001  0.010  0.019
   20  0.020  0.005  0.006  0.031
   21  0.020  0.005  0.006  0.031
   22  0.007  0.006  0.005  0.018
   23  0.020  0.005  0.006  0.031
   24  0.007  0.006  0.005  0.018
   25  0.009  0.001  0.010  0.019
   26  0.009  0.001  0.010  0.019
   27  0.007  0.006  0.005  0.018
   28  0.000  0.000  0.002  0.003
   29  0.002  0.001  0.003  0.006
   30  0.002  0.001  0.003  0.006
   31  0.002  0.001  0.003  0.006
   32  0.002  0.001  0.003  0.006
   33  0.002  0.001  0.003  0.006
   34  0.002  0.001  0.003  0.006
   35  0.000  0.001  0.001  0.002
   36  0.013  0.007  0.008  0.029
   37  0.002  0.001  0.000  0.003
   38  0.000  0.000  0.000  0.000
   39  0.000  0.000  0.000  0.000
tot    0.338  0.116  0.203  0.657
 
band    15 # energy   -4.99634477 # occ.  2.00000000
 
ion      s      p      d    tot
    1  0.000  0.002  0.010  0.012
    2  0.018  0.003  0.005  0.026
    3  0.002  0.002  0.004  0.008
    4  0.018  0.003  0.005  0.026
    5  0.000  0.001  0.009  0.009
    6  0.008  0.002  0.005  0.015
    7  0.002  0.002  0.004  0.008
    8  0.008  0.002  0.005  0.015
    9  0.000  0.005  0.008  0.013
   10  0.000  0.005  0.015  0.019
   11  0.007  0.002  0.009  0.018
   12  0.003  0.001  0.009  0.013
   13  0.007  0.002  0.009  0.018
   14  0.000  0.001  0.015  0.016
   15  0.019  0.003  0.008  0.031
   16  0.003  0.001  0.009  0.013
   17  0.019  0.003  0.008  0.031
   18  0.000  0.001  0.021  0.022
   19  0.007  0.004  0.009  0.020
   20  0.000  0.003  0.023  0.026
   21  0.000  0.001  0.013  0.014
   22  0.009  0.004  0.009  0.022
   23  0.000  0.001  0.013  0.014
   24  0.000  0.001  0.028  0.029
   25  0.000  0.000  0.010  0.010
   26  0.007  0.004  0.009  0.020
   27  0.009  0.004  0.009  0.022
   28  0.000  0.003  0.007  0.010
   29  0.023  0.003  0.008  0.034
   30  0.001  0.002  0.009  0.012
   31  0.023  0.003  0.008  0.034
   32  0.014  0.002  0.008  0.024
   33  0.001  0.002  0.009  0.012
   34  0.014  0.002  0.008  0.024
   35  0.000  0.006  0.007  0.013
   36  0.000  0.001  0.058  0.059
   37  0.000  0.000  0.000  0.000
   38  0.000  0.000  0.000  0.000
   39  0.000  0.000  0.000  0.000
tot    0.223  0.089  0.400  0.712
 
band    16 # energy   -4.99626912 # occ.  2.00000000
 
ion      s      p      d    tot
    1  0.000  0.002  0.010  0.012
    2  0.001  0.001  0.004  0.007
    3  0.017  0.003  0.005  0.025
    4  0.001  0.001  0.004  0.007
    5  0.000  0.001  0.009  0.009
    6  0.011  0.003  0.004  0.018
    7  0.017  0.003  0.005  0.025
    8  0.011  0.003  0.004  0.018
    9  0.000  0.005  0.008  0.013
   10  0.004  0.000  0.007  0.011
   11  0.002  0.002  0.013  0.017
   12  0.001  0.004  0.013  0.017
   13  0.002  0.002  0.013  0.017
   14  0.009  0.002  0.006  0.018
   15  0.006  0.002  0.016  0.025
   16  0.001  0.004  0.013  0.017
   17  0.006  0.002  0.016  0.025
   18  0.026  0.004  0.004  0.034
   19  0.002  0.001  0.010  0.014
   20  0.000  0.000  0.010  0.010
   21  0.000  0.002  0.020  0.022
   22  0.003  0.002  0.022  0.027
   23  0.000  0.002  0.020  0.022
   24  0.012  0.004  0.003  0.019
   25  0.009  0.005  0.009  0.023
   26  0.002  0.001  0.010  0.014
   27  0.003  0.002  0.022  0.027
   28  0.000  0.003  0.007  0.010
   29  0.002  0.002  0.009  0.013
   30  0.025  0.002  0.007  0.034
   31  0.002  0.002  0.009  0.013
   32  0.012  0.003  0.008  0.023
   33  0.025  0.002  0.007  0.034
   34  0.012  0.003  0.008  0.023
   35  0.000  0.006  0.007  0.013
   36  0.000  0.001  0.058  0.059
   37  0.000  0.000  0.000  0.000
   38  0.000  0.000  0.000  0.000
   39  0.000  0.000  0.000  0.000
tot    0.223  0.089  0.400  0.712
 
band    17 # energy   -4.98223687 # occ.  2.00000000
 
ion      s      p      d    tot
    1  0.005  0.001  0.010  0.016
    2  0.006  0.001  0.010  0.016
    3  0.006  0.001  0.010  0.016
    4  0.006  0.001  0.010  0.016
    5  0.003  0.001  0.010  0.014
    6  0.006  0.001  0.010  0.016
    7  0.006  0.001  0.010  0.016
    8  0.006  0.001  0.010  0.016
    9  0.010  0.000  0.009  0.019
   10  0.008  0.000  0.025  0.033
   11  0.009  0.000  0.022  0.031
   12  0.008  0.000  0.025  0.033
   13  0.009  0.000  0.022  0.031
   14  0.009  0.000  0.022  0.031
   15  0.005  0.000  0.023  0.028
   16  0.008  0.000  0.025  0.033
   17  0.005  0.000  0.023  0.028
   18  0.005  0.000  0.023  0.028
   19  0.006  0.000  0.019  0.025
   20  0.007  0.000  0.025  0.032
   21  0.007  0.000  0.025  0.032
   22  0.004  0.000  0.019  0.023
   23  0.007  0.000  0.025  0.032
   24  0.004  0.000  0.019  0.023
   25  0.006  0.000  0.019  0.025
   26  0.006  0.000  0.019  0.025
   27  0.004  0.000  0.019  0.023
   28  0.002  0.001  0.006  0.008
   29  0.003  0.001  0.007  0.011
   30  0.003  0.001  0.007  0.011
   31  0.003  0.001  0.007  0.011
   32  0.003  0.001  0.007  0.011
   33  0.003  0.001  0.007  0.011
   34  0.003  0.001  0.007  0.011
   35  0.003  0.000  0.006  0.009
   36  0.006  0.003  0.020  0.029
   37  0.001  0.000  0.000  0.001
   38  0.000  0.000  0.000  0.001
   39  0.000  0.000  0.000  0.000
tot    0.203  0.014  0.561  0.779
 
band    18 # energy   -4.95759357 # occ.  2.00000000
 
ion      s      p      d    tot
    1  0.000  0.004  0.010  0.014
    2  0.022  0.004  0.006  0.032
    3  0.003  0.002  0.005  0.010
    4  0.022  0.004  0.006  0.032
    5  0.000  0.006  0.010  0.016
    6  0.009  0.003  0.006  0.017
    7  0.003  0.002  0.005  0.010
    8  0.009  0.003  0.006  0.017
    9  0.000  0.000  0.012  0.013
   10  0.023  0.005  0.008  0.036
   11  0.004  0.003  0.020  0.027
   12  0.006  0.001  0.019  0.026
   13  0.004  0.003  0.020  0.027
   14  0.017  0.003  0.005  0.025
   15  0.000  0.003  0.014  0.017
   16  0.006  0.001  0.019  0.026
   17  0.000  0.003  0.014  0.017
   18  0.000  0.001  0.009  0.010
   19  0.001  0.002  0.018  0.021
   20  0.018  0.007  0.004  0.029
   21  0.005  0.002  0.021  0.028
   22  0.001  0.001  0.011  0.013
   23  0.005  0.002  0.021  0.028
   24  0.003  0.002  0.010  0.015
   25  0.004  0.001  0.005  0.010
   26  0.001  0.002  0.019  0.021
   27  0.001  0.001  0.011  0.013
   28  0.000  0.003  0.008  0.011
   29  0.016  0.004  0.006  0.025
   30  0.002  0.001  0.004  0.007
   31  0.016  0.004  0.006  0.025
   32  0.006  0.002  0.006  0.015
   33  0.002  0.001  0.004  0.008
   34  0.007  0.002  0.006  0.015
   35  0.000  0.000  0.008  0.008
   36  0.000  0.006  0.046  0.052
   37  0.000  0.001  0.000  0.001
   38  0.000  0.001  0.000  0.001
   39  0.000  0.000  0.000  0.000
tot    0.216  0.095  0.405  0.717
 
band    19 # energy   -4.95750779 # occ.  2.00000000
 
ion      s      p      d    tot
    1  0.000  0.004  0.010  0.014
    2  0.000  0.002  0.005  0.008
    3  0.020  0.004  0.006  0.029
    4  0.001  0.002  0.005  0.008
    5  0.000  0.006  0.010  0.016
    6  0.014  0.003  0.005  0.023
    7  0.019  0.004  0.006  0.029
    8  0.014  0.003  0.005  0.022
    9  0.000  0.000  0.012  0.013
   10  0.000  0.000  0.022  0.022
   11  0.013  0.003  0.010  0.026
   12  0.018  0.004  0.011  0.033
   13  0.013  0.003  0.010  0.026
   14  0.000  0.003  0.025  0.028
   15  0.000  0.001  0.011  0.012
   16  0.017  0.004  0.011  0.032
   17  0.000  0.001  0.011  0.012
   18  0.000  0.004  0.015  0.019
   19  0.003  0.001  0.009  0.014
   20  0.000  0.000  0.027  0.027
   21  0.014  0.005  0.009  0.028
   22  0.002  0.002  0.010  0.014
   23  0.014  0.005  0.010  0.028
   24  0.000  0.001  0.011  0.012
   25  0.000  0.002  0.023  0.025
   26  0.003  0.001  0.009  0.014
   27  0.002  0.002  0.010  0.014
   28  0.000  0.003  0.008  0.011
   29  0.000  0.001  0.005  0.007
   30  0.014  0.003  0.007  0.024
   31  0.000  0.001  0.005  0.007
   32  0.010  0.002  0.005  0.017
   33  0.014  0.003  0.007  0.024
   34  0.010  0.002  0.005  0.017
   35  0.000  0.000  0.008  0.008
   36  0.000  0.006  0.046  0.052
   37  0.000  0.001  0.000  0.001
   38  0.000  0.001  0.000  0.001
   39  0.000  0.000  0.000  0.000
tot    0.216  0.095  0.405  0.717
 
band    20 # energy   -4.92790544 # occ.  2.00000000
 
ion      s      p      d    tot
    1  0.034  0.003  0.000  0.038
    2  0.000  0.003  0.010  0.013
    3  0.000  0.003  0.010  0.013
    4  0.000  0.003  0.010  0.013
    5  0.000  0.000  0.000  0.000
    6  0.000  0.003  0.010  0.013
    7  0.000  0.003  0.010  0.013
    8  0.000  0.003  0.010  0.013
    9  0.031  0.004  0.001  0.035
   10  0.009  0.004  0.011  0.023
   11  0.001  0.000  0.015  0.016
   12  0.009  0.004  0.011  0.023
   13  0.001  0.000  0.015  0.016
   14  0.001  0.000  0.015  0.016
   15  0.007  0.003  0.017  0.028
   16  0.009  0.004  0.011  0.023
   17  0.007  0.003  0.017  0.028
   18  0.007  0.003  0.017  0.028
   19  0.005  0.004  0.018  0.027
   20  0.000  0.000  0.014  0.015
   21  0.000  0.000  0.014  0.015
   22  0.011  0.004  0.010  0.025
   23  0.000  0.000  0.014  0.015
   24  0.011  0.004  0.010  0.025
   25  0.005  0.004  0.018  0.027
   26  0.005  0.004  0.018  0.027
   27  0.011  0.004  0.010  0.025
   28  0.036  0.003  0.000  0.040
   29  0.000  0.003  0.010  0.013
   30  0.000  0.003  0.010  0.013
   31  0.000  0.003  0.010  0.013
   32  0.000  0.003  0.010  0.013
   33  0.000  0.003  0.010  0.013
   34  0.000  0.003  0.010  0.013
   35  0.029  0.004  0.001  0.034
   36  0.000  0.000  0.000  0.000
   37  0.000  0.000  0.000  0.000
   38  0.000  0.000  0.000  0.000
   39  0.000  0.000  0.000  0.000