PROCAR new format
# of k-points:   10         # of bands:  252         # of ions:   37

 k-point     1 :    0.00000000 0.00000000 0.00000000     weight = 0.01562500

band     1 # energy  -14.26890610 # occ.  2.00000000
 
ion      s      p      d    tot
    1  0.000  0.000  0.000  0.000
    2  0.000  0.000  0.000  0.000
    3  0.000  0.000  0.000  0.000
    4  0.000  0.000  0.000  0.000
    5  0.000  0.000  0.000  0.000
    6  0.000  0.000  0.000  0.000
    7  0.000  0.000  0.000  0.000
    8  0.000  0.000  0.000  0.000
    9  0.000  0.000  0.000  0.000
   10  0.000  0.000  0.000  0.000
   11  0.000  0.000  0.000  0.000
   12  0.000  0.000  0.000  0.000
   13  0.000  0.000  0.000  0.000
   14  0.000  0.000  0.000  0.000
   15  0.000  0.000  0.000  0.000
   16  0.000  0.000  0.000  0.000
   17  0.000  0.000  0.000  0.000
   18  0.000  0.000  0.000  0.000
   19  0.000  0.000  0.000  0.000
   20  0.000  0.000  0.000  0.001
   21  0.000  0.000  0.000  0.001
   22  0.000  0.000  0.000  0.000
   23  0.000  0.000  0.000  0.001
   24  0.000  0.000  0.000  0.000
   25  0.000  0.000  0.000  0.000
   26  0.000  0.000  0.000  0.000
   27  0.000  0.000  0.000  0.000
   28  0.000  0.000  0.000  0.000
   29  0.000  0.000  0.000  0.000
   30  0.000  0.000  0.000  0.000
   31  0.000  0.000  0.000  0.000
   32  0.000  0.000  0.000  0.000
   33  0.000  0.000  0.000  0.000
   34  0.000  0.000  0.000  0.000
   35  0.000  0.000  0.000  0.000
   36  0.078  0.059  0.155  0.293
   37  0.583  0.030  0.000  0.613
tot    0.663  0.090  0.156  0.909
 
band     2 # energy   -8.76550755 # occ.  2.00000000
 
ion      s      p      d    tot
    1  0.006  0.001  0.000  0.006
    2  0.006  0.001  0.000  0.006
    3  0.006  0.001  0.000  0.006
    4  0.006  0.001  0.000  0.006
    5  0.006  0.001  0.000  0.006
    6  0.006  0.001  0.000  0.006
    7  0.006  0.001  0.000  0.006
    8  0.006  0.001  0.000  0.006
    9  0.006  0.001  0.000  0.006
   10  0.023  0.000  0.000  0.023
   11  0.023  0.000  0.000  0.023
   12  0.023  0.000  0.000  0.023
   13  0.023  0.000  0.000  0.023
   14  0.023  0.000  0.000  0.023
   15  0.023  0.000  0.000  0.023
   16  0.023  0.000  0.000  0.023
   17  0.023  0.000  0.000  0.023
   18  0.023  0.000  0.000  0.023
   19  0.025  0.000  0.000  0.025
   20  0.027  0.000  0.000  0.027
   21  0.027  0.000  0.000  0.027
   22  0.025  0.000  0.000  0.025
   23  0.027  0.000  0.000  0.027
   24  0.025  0.000  0.000  0.025
   25  0.025  0.000  0.000  0.025
   26  0.025  0.000  0.000  0.025
   27  0.025  0.000  0.000  0.025
   28  0.008  0.001  0.000  0.008
   29  0.008  0.001  0.000  0.009
   30  0.008  0.001  0.000  0.009
   31  0.008  0.001  0.000  0.009
   32  0.008  0.001  0.000  0.009
   33  0.008  0.001  0.000  0.009
   34  0.008  0.001  0.000  0.009
   35  0.008  0.001  0.000  0.008
   36  0.015  0.003  0.002  0.020
   37  0.002  0.000  0.000  0.002
tot    0.568  0.019  0.003  0.589
 
band     3 # energy   -7.53551734 # occ.  2.00000000
 
ion      s      p      d    tot
    1  0.017  0.001  0.000  0.018
    2  0.017  0.001  0.000  0.018
    3  0.017  0.001  0.000  0.018
    4  0.017  0.001  0.000  0.018
    5  0.017  0.001  0.000  0.018
    6  0.017  0.001  0.000  0.018
    7  0.017  0.001  0.000  0.018
    8  0.017  0.001  0.000  0.018
    9  0.017  0.001  0.000  0.018
   10  0.012  0.002  0.001  0.014
   11  0.012  0.002  0.001  0.014
   12  0.012  0.002  0.001  0.014
   13  0.012  0.002  0.001  0.014
   14  0.012  0.002  0.001  0.014
   15  0.012  0.002  0.001  0.014
   16  0.012  0.002  0.001  0.014
   17  0.012  0.002  0.001  0.014
   18  0.012  0.002  0.001  0.014
   19  0.006  0.002  0.000  0.009
   20  0.007  0.003  0.000  0.010
   21  0.007  0.003  0.000  0.010
   22  0.006  0.002  0.000  0.009
   23  0.007  0.003  0.000  0.010
   24  0.006  0.002  0.000  0.009
   25  0.006  0.002  0.000  0.009
   26  0.006  0.002  0.000  0.009
   27  0.006  0.002  0.000  0.009
   28  0.016  0.001  0.001  0.017
   29  0.020  0.001  0.001  0.022
   30  0.020  0.001  0.001  0.022
   31  0.020  0.001  0.001  0.022
   32  0.020  0.001  0.001  0.022
   33  0.020  0.001  0.001  0.022
   34  0.020  0.001  0.001  0.022
   35  0.016  0.001  0.001  0.017
   36  0.041  0.003  0.017  0.061
   37  0.002  0.000  0.000  0.002
tot    0.512  0.055  0.036  0.603
 
band     4 # energy   -6.11388041 # occ.  2.00000000
 
ion      s      p      d    tot
    1  0.012  0.000  0.003  0.015
    2  0.012  0.000  0.003  0.015
    3  0.012  0.000  0.003  0.015
    4  0.012  0.000  0.003  0.015
    5  0.010  0.000  0.003  0.013
    6  0.012  0.000  0.003  0.015
    7  0.012  0.000  0.003  0.015
    8  0.012  0.000  0.003  0.015
    9  0.014  0.000  0.002  0.017
   10  0.001  0.003  0.000  0.004
   11  0.002  0.003  0.000  0.005
   12  0.001  0.003  0.000  0.004
   13  0.002  0.003  0.000  0.005
   14  0.002  0.003  0.000  0.005
   15  0.000  0.003  0.000  0.003
   16  0.001  0.003  0.000  0.004
   17  0.000  0.003  0.000  0.003
   18  0.000  0.003  0.000  0.003
   19  0.006  0.001  0.004  0.011
   20  0.013  0.002  0.009  0.024
   21  0.013  0.002  0.009  0.024
   22  0.004  0.001  0.004  0.009
   23  0.013  0.002  0.009  0.024
   24  0.004  0.001  0.004  0.009
   25  0.006  0.001  0.004  0.011
   26  0.006  0.001  0.004  0.011
   27  0.004  0.001  0.004  0.009
   28  0.006  0.000  0.004  0.011
   29  0.013  0.001  0.009  0.023
   30  0.013  0.001  0.009  0.023
   31  0.013  0.001  0.009  0.023
   32  0.013  0.001  0.009  0.023
   33  0.013  0.001  0.009  0.023
   34  0.013  0.001  0.009  0.023
   35  0.008  0.000  0.004  0.012
   36  0.023  0.001  0.193  0.217
   37  0.005  0.020  0.000  0.025
tot    0.311  0.067  0.331  0.709
 
band     5 # energy   -5.94123911 # occ.  2.00000000
 
ion      s      p      d    tot
    1  0.000  0.001  0.002  0.003
    2  0.003  0.001  0.001  0.005
    3  0.000  0.000  0.001  0.001
    4  0.003  0.001  0.001  0.005
    5  0.000  0.001  0.002  0.003
    6  0.002  0.001  0.001  0.004
    7  0.000  0.000  0.001  0.001
    8  0.002  0.001  0.001  0.004
    9  0.000  0.000  0.001  0.001
   10  0.027  0.003  0.002  0.033
   11  0.006  0.005  0.004  0.015
   12  0.007  0.001  0.006  0.013
   13  0.005  0.005  0.004  0.015
   14  0.021  0.001  0.003  0.026
   15  0.000  0.003  0.003  0.006
   16  0.007  0.001  0.006  0.014
   17  0.000  0.003  0.003  0.006
   18  0.000  0.001  0.002  0.003
   19  0.003  0.008  0.001  0.012
   20  0.070  0.002  0.012  0.083
   21  0.017  0.004  0.014  0.035
   22  0.004  0.002  0.008  0.014
   23  0.018  0.004  0.014  0.036
   24  0.015  0.004  0.002  0.020
   25  0.010  0.000  0.005  0.015
   26  0.002  0.008  0.001  0.012
   27  0.004  0.002  0.008  0.014
   28  0.000  0.002  0.002  0.004
   29  0.010  0.004  0.007  0.020
   30  0.002  0.001  0.003  0.005
   31  0.009  0.004  0.007  0.020
   32  0.003  0.002  0.007  0.012
   33  0.002  0.001  0.003  0.006
   34  0.003  0.002  0.007  0.012
   35  0.000  0.000  0.003  0.003
   36  0.000  0.004  0.209  0.213
   37  0.000  0.018  0.000  0.018
tot    0.256  0.103  0.354  0.713
 
band     6 # energy   -5.94115529 # occ.  2.00000000
 
ion      s      p      d    tot
    1  0.000  0.001  0.002  0.003
    2  0.000  0.000  0.001  0.002
    3  0.004  0.001  0.001  0.006
    4  0.000  0.000  0.001  0.002
    5  0.000  0.001  0.002  0.003
    6  0.002  0.001  0.001  0.003
    7  0.004  0.001  0.001  0.006
    8  0.002  0.001  0.001  0.003
    9  0.000  0.000  0.001  0.001
   10  0.000  0.000  0.007  0.007
   11  0.016  0.002  0.004  0.022
   12  0.021  0.003  0.003  0.027
   13  0.016  0.002  0.004  0.022
   14  0.000  0.007  0.004  0.011
   15  0.000  0.002  0.002  0.004
   16  0.020  0.003  0.004  0.026
   17  0.000  0.002  0.002  0.004
   18  0.000  0.004  0.003  0.007
   19  0.007  0.003  0.004  0.014
   20  0.000  0.005  0.015  0.020
   21  0.053  0.002  0.012  0.068
   22  0.012  0.003  0.004  0.018
   23  0.051  0.002  0.012  0.066
   24  0.000  0.002  0.010  0.012
   25  0.000  0.010  0.000  0.011
   26  0.008  0.003  0.004  0.014
   27  0.011  0.003  0.004  0.018
   28  0.000  0.002  0.002  0.004
   29  0.000  0.001  0.004  0.005
   30  0.008  0.004  0.008  0.020
   31  0.000  0.001  0.004  0.005
   32  0.007  0.003  0.004  0.013
   33  0.008  0.004  0.008  0.020
   34  0.006  0.002  0.004  0.013
   35  0.000  0.000  0.003  0.003
   36  0.000  0.004  0.209  0.213
   37  0.000  0.018  0.000  0.018
tot    0.256  0.103  0.354  0.713
 
band     7 # energy   -5.85349184 # occ.  2.00000000
 
ion      s      p      d    tot
    1  0.000  0.000  0.000  0.000
    2  0.001  0.001  0.002  0.004
    3  0.001  0.001  0.002  0.004
    4  0.001  0.001  0.002  0.004
    5  0.016  0.002  0.000  0.018
    6  0.001  0.001  0.002  0.004
    7  0.001  0.001  0.002  0.004
    8  0.001  0.001  0.002  0.004
    9  0.002  0.001  0.002  0.005
   10  0.001  0.003  0.006  0.010
   11  0.014  0.006  0.003  0.023
   12  0.001  0.003  0.006  0.010
   13  0.014  0.006  0.003  0.023
   14  0.014  0.006  0.003  0.023
   15  0.016  0.002  0.006  0.024
   16  0.001  0.003  0.006  0.010
   17  0.016  0.002  0.006  0.024
   18  0.016  0.002  0.006  0.024
   19  0.013  0.000  0.011  0.024
   20  0.027  0.009  0.007  0.043
   21  0.027  0.009  0.007  0.043
   22  0.012  0.007  0.003  0.022
   23  0.027  0.009  0.007  0.043
   24  0.012  0.007  0.003  0.022
   25  0.013  0.000  0.011  0.024
   26  0.013  0.000  0.011  0.024
   27  0.012  0.007  0.003  0.022
   28  0.004  0.001  0.001  0.006
   29  0.000  0.002  0.006  0.009
   30  0.000  0.002  0.006  0.009
   31  0.000  0.002  0.006  0.009
   32  0.000  0.002  0.006  0.009
   33  0.000  0.002  0.006  0.009
   34  0.000  0.002  0.006  0.009
   35  0.008  0.002  0.000  0.010
   36  0.070  0.012  0.010  0.091
   37  0.013  0.015  0.000  0.028
tot    0.369  0.131  0.169  0.669
 
band     8 # energy   -5.79668011 # occ.  2.00000000
 
ion      s      p      d    tot
    1  0.000  0.001  0.002  0.003
    2  0.006  0.001  0.001  0.009
    3  0.000  0.001  0.001  0.002
    4  0.006  0.001  0.001  0.009
    5  0.000  0.000  0.002  0.002
    6  0.004  0.001  0.002  0.007
    7  0.000  0.001  0.001  0.002
    8  0.004  0.001  0.002  0.007
    9  0.000  0.002  0.004  0.006
   10  0.000  0.010  0.002  0.012
   11  0.010  0.003  0.004  0.017
   12  0.007  0.003  0.004  0.013
   13  0.010  0.003  0.004  0.017
   14  0.000  0.002  0.008  0.010
   15  0.033  0.003  0.005  0.042
   16  0.007  0.003  0.004  0.013
   17  0.034  0.003  0.005  0.042
   18  0.000  0.004  0.010  0.013
   19  0.037  0.003  0.006  0.046
   20  0.000  0.011  0.003  0.014
   21  0.000  0.004  0.004  0.008
   22  0.035  0.004  0.005  0.043
   23  0.000  0.004  0.004  0.008
   24  0.000  0.011  0.004  0.015
   25  0.000  0.000  0.016  0.017
   26  0.038  0.003  0.006  0.047
   27  0.034  0.004  0.005  0.043
   28  0.000  0.003  0.006  0.009
   29  0.019  0.003  0.005  0.027
   30  0.001  0.002  0.006  0.009
   31  0.019  0.003  0.005  0.027
   32  0.011  0.001  0.005  0.017
   33  0.001  0.002  0.006  0.009
   34  0.011  0.001  0.005  0.017
   35  0.000  0.005  0.005  0.010
   36  0.000  0.000  0.066  0.067
   37  0.000  0.001  0.000  0.001
tot    0.327  0.109  0.223  0.658
 
band     9 # energy   -5.79661290 # occ.  2.00000000
 
ion      s      p      d    tot
    1  0.000  0.001  0.002  0.003
    2  0.001  0.001  0.001  0.003
    3  0.006  0.002  0.002  0.010
    4  0.001  0.001  0.001  0.003
    5  0.000  0.000  0.002  0.002
    6  0.003  0.001  0.001  0.005
    7  0.006  0.002  0.002  0.009
    8  0.003  0.001  0.001  0.005
    9  0.000  0.002  0.004  0.006
   10  0.009  0.000  0.004  0.014
   11  0.003  0.002  0.007  0.012
   12  0.002  0.007  0.002  0.012
   13  0.003  0.002  0.007  0.012
   14  0.014  0.003  0.002  0.019
   15  0.012  0.003  0.008  0.023
   16  0.002  0.007  0.003  0.012
   17  0.011  0.003  0.008  0.022
   18  0.045  0.003  0.003  0.051
   19  0.013  0.001  0.013  0.027
   20  0.000  0.002  0.004  0.006
   21  0.000  0.009  0.003  0.012
   22  0.011  0.009  0.004  0.024
   23  0.000  0.009  0.003  0.012
   24  0.046  0.001  0.005  0.052
   25  0.050  0.004  0.002  0.057
   26  0.012  0.001  0.013  0.026
   27  0.012  0.009  0.004  0.024
   28  0.000  0.003  0.006  0.009
   29  0.001  0.001  0.006  0.009
   30  0.020  0.002  0.005  0.027
   31  0.002  0.001  0.006  0.009
   32  0.010  0.003  0.005  0.019
   33  0.019  0.002  0.005  0.026
   34  0.010  0.003  0.005  0.018
   35  0.000  0.005  0.005  0.010
   36  0.000  0.000  0.066  0.067
   37  0.000  0.001  0.000  0.001
tot    0.327  0.109  0.223  0.658
 
band    10 # energy   -5.72391898 # occ.  2.00000000
 
ion      s      p      d    tot
    1  0.020  0.003  0.001  0.024
    2  0.000  0.002  0.004  0.005
    3  0.000  0.002  0.004  0.005
    4  0.000  0.002  0.004  0.005
    5  0.001  0.000  0.000  0.002
    6  0.000  0.002  0.004  0.005
    7  0.000  0.002  0.004  0.005
    8  0.000  0.002  0.004  0.005
    9  0.008  0.001  0.000  0.010
   10  0.029  0.005  0.006  0.040
   11  0.005  0.000  0.011  0.016
   12  0.029  0.005  0.006  0.040
   13  0.005  0.000  0.011  0.016
   14  0.005  0.000  0.011  0.016
   15  0.012  0.008  0.003  0.023
   16  0.029  0.005  0.006  0.040
   17  0.012  0.008  0.003  0.023
   18  0.012  0.008  0.003  0.023
   19  0.023  0.009  0.002  0.035
   20  0.000  0.003  0.010  0.012
   21  0.000  0.003  0.010  0.012
   22  0.025  0.002  0.010  0.037
   23  0.000  0.003  0.010  0.012
   24  0.025  0.002  0.010  0.037
   25  0.023  0.009  0.002  0.035
   26  0.023  0.009  0.002  0.035
   27  0.025  0.002  0.010  0.037
   28  0.022  0.003  0.000  0.025
   29  0.000  0.002  0.004  0.006
   30  0.000  0.002  0.004  0.006
   31  0.000  0.002  0.004  0.006
   32  0.000  0.002  0.004  0.006
   33  0.000  0.002  0.004  0.006
   34  0.000  0.002  0.004  0.006
   35  0.012  0.002  0.001  0.016
   36  0.000  0.000  0.000  0.000
   37  0.000  0.000  0.000  0.000
tot    0.347  0.117  0.176  0.639
 
band    11 # energy   -5.33564414 # occ.  2.00000000
 
ion      s      p      d    tot
    1  0.000  0.000  0.005  0.005
    2  0.007  0.002  0.003  0.012
    3  0.002  0.001  0.003  0.006
    4  0.004  0.001  0.003  0.008
    5  0.000  0.004  0.006  0.010
    6  0.011  0.003  0.003  0.017
    7  0.000  0.001  0.003  0.004
    8  0.012  0.003  0.003  0.018
    9  0.000  0.002  0.004  0.006
   10  0.011  0.002  0.002  0.015
   11  0.015  0.002  0.008  0.025
   12  0.002  0.002  0.013  0.016
   13  0.006  0.002  0.010  0.018
   14  0.039  0.002  0.003  0.044
   15  0.003  0.005  0.003  0.011
   16  0.004  0.002  0.010  0.016
   17  0.001  0.007  0.002  0.010
   18  0.008  0.000  0.006  0.014
   19  0.000  0.001  0.002  0.004
   20  0.001  0.004  0.005  0.010
   21  0.000  0.001  0.027  0.028
   22  0.000  0.000  0.004  0.005
   23  0.000  0.002  0.021  0.023
   24  0.002  0.003  0.008  0.012
   25  0.001  0.000  0.003  0.004
   26  0.000  0.001  0.002  0.003
   27  0.001  0.001  0.005  0.007
   28  0.000  0.001  0.000  0.001
   29  0.001  0.001  0.007  0.010
   30  0.004  0.000  0.003  0.007
   31  0.003  0.000  0.006  0.009
   32  0.001  0.001  0.007  0.008
   33  0.004  0.000  0.002  0.007
   34  0.000  0.001  0.008  0.009
   35  0.000  0.000  0.001  0.001
   36  0.000  0.001  0.304  0.305
   37  0.000  0.050  0.000  0.050
tot    0.145  0.110  0.505  0.759
 
band    12 # energy   -5.33563669 # occ.  2.00000000
 
ion      s      p      d    tot
    1  0.000  0.000  0.005  0.005
    2  0.005  0.002  0.003  0.010
    3  0.010  0.002  0.003  0.015
    4  0.008  0.002  0.003  0.014
    5  0.000  0.004  0.006  0.010
    6  0.001  0.001  0.003  0.005
    7  0.012  0.003  0.003  0.018
    8  0.000  0.001  0.003  0.004
    9  0.000  0.002  0.004  0.006
   10  0.000  0.002  0.014  0.016
   11  0.025  0.002  0.006  0.033
   12  0.010  0.002  0.004  0.015
   13  0.034  0.002  0.004  0.040
   14  0.001  0.002  0.011  0.014
   15  0.005  0.003  0.004  0.012
   16  0.007  0.002  0.007  0.016
   17  0.007  0.001  0.005  0.013
   18  0.000  0.008  0.001  0.009
   19  0.000  0.001  0.003  0.004
   20  0.000  0.000  0.031  0.031
   21  0.001  0.004  0.008  0.013
   22  0.001  0.003  0.007  0.011
   23  0.001  0.003  0.015  0.018
   24  0.000  0.000  0.004  0.004
   25  0.000  0.001  0.002  0.003
   26  0.000  0.001  0.003  0.004
   27  0.001  0.002  0.006  0.009
   28  0.000  0.001  0.000  0.001
   29  0.003  0.000  0.004  0.007
   30  0.001  0.001  0.008  0.010
   31  0.002  0.001  0.005  0.008
   32  0.004  0.000  0.004  0.008
   33  0.000  0.001  0.009  0.010
   34  0.004  0.000  0.003  0.007
   35  0.000  0.000  0.001  0.001
   36  0.000  0.001  0.304  0.305
   37  0.000  0.050  0.000  0.050
tot    0.145  0.110  0.505  0.759
 
band    13 # energy   -5.29136379 # occ.  2.00000000
 
ion      s      p      d    tot
    1  0.014  0.000  0.008  0.022
    2  0.009  0.001  0.010  0.019
    3  0.009  0.001  0.010  0.019
    4  0.009  0.001  0.010  0.019
    5  0.000  0.002  0.010  0.012
    6  0.009  0.001  0.010  0.019
    7  0.009  0.001  0.010  0.019
    8  0.009  0.001  0.010  0.019
    9  0.025  0.000  0.005  0.031
   10  0.005  0.001  0.015  0.021
   11  0.022  0.002  0.008  0.033
   12  0.005  0.001  0.015  0.021
   13  0.022  0.002  0.008  0.033
   14  0.022  0.002  0.008  0.033
   15  0.000  0.001  0.014  0.016
   16  0.005  0.001  0.015  0.021
   17  0.000  0.001  0.014  0.016
   18  0.000  0.001  0.014  0.016
   19  0.000  0.001  0.001  0.002
   20  0.000  0.004  0.018  0.023
   21  0.000  0.004  0.018  0.023
   22  0.001  0.001  0.002  0.004
   23  0.000  0.004  0.018  0.023
   24  0.001  0.001  0.002  0.004
   25  0.000  0.001  0.001  0.002
   26  0.000  0.001  0.001  0.002
   27  0.001  0.001  0.002  0.004
   28  0.001  0.000  0.000  0.001
   29  0.000  0.001  0.002  0.003
   30  0.000  0.001  0.002  0.003
   31  0.000  0.001  0.002  0.003
   32  0.000  0.001  0.002  0.003
   33  0.000  0.001  0.002  0.003
   34  0.000  0.001  0.002  0.003
   35  0.003  0.000  0.000  0.003
   36  0.002  0.001  0.174  0.178
   37  0.022  0.059  0.000  0.080
tot    0.210  0.103  0.444  0.757
 
band    14 # energy   -5.22100919 # occ.  2.00000000
 
ion      s      p      d    tot
    1  0.000  0.005  0.007  0.012
    2  0.010  0.003  0.004  0.017
    3  0.013  0.003  0.004  0.020
    4  0.010  0.003  0.004  0.016
    5  0.000  0.001  0.006  0.006
    6  0.000  0.001  0.003  0.005
    7  0.013  0.003  0.004  0.019
    8  0.000  0.001  0.003  0.005
    9  0.000  0.002  0.007  0.009
   10  0.032  0.001  0.006  0.039
   11  0.000  0.005  0.006  0.011
   12  0.009  0.004  0.007  0.020
   13  0.000  0.005  0.006  0.011
   14  0.000  0.000  0.005  0.005
   15  0.006  0.001  0.014  0.021
   16  0.007  0.004  0.007  0.019
   17  0.007  0.001  0.013  0.021
   18  0.027  0.003  0.001  0.032
   19  0.000  0.002  0.007  0.008
   20  0.000  0.005  0.010  0.014
   21  0.000  0.002  0.005  0.007
   22  0.000  0.000  0.013  0.014
   23  0.000  0.002  0.005  0.007
   24  0.001  0.001  0.000  0.003
   25  0.000  0.005  0.004  0.009
   26  0.000  0.002  0.007  0.008
   27  0.000  0.000  0.014  0.015
   28  0.000  0.002  0.001  0.003
   29  0.005  0.002  0.012  0.019
   30  0.018  0.000  0.012  0.031
   31  0.004  0.002  0.012  0.018
   32  0.004  0.002  0.012  0.018
   33  0.018  0.000  0.012  0.031
   34  0.005  0.002  0.012  0.018
   35  0.000  0.002  0.003  0.005
   36  0.000  0.000  0.226  0.227
   37  0.000  0.007  0.000  0.007
tot    0.192  0.083  0.476  0.751
 
band    15 # energy   -5.22097811 # occ.  2.00000000
 
ion      s      p      d    tot
    1  0.000  0.005  0.007  0.012
    2  0.005  0.002  0.003  0.010
    3  0.002  0.002  0.004  0.007
    4  0.006  0.002  0.003  0.011
    5  0.000  0.001  0.006  0.006
    6  0.015  0.003  0.004  0.022
    7  0.003  0.002  0.004  0.008
    8  0.015  0.003  0.004  0.022
    9  0.000  0.002  0.007  0.009
   10  0.000  0.005  0.008  0.013
   11  0.000  0.002  0.005  0.007
   12  0.023  0.002  0.006  0.032
   13  0.000  0.002  0.005  0.007
   14  0.000  0.006  0.007  0.013
   15  0.021  0.003  0.005  0.029
   16  0.025  0.002  0.006  0.033
   17  0.020  0.002  0.006  0.028
   18  0.000  0.000  0.017  0.018
   19  0.000  0.004  0.005  0.009
   20  0.000  0.001  0.004  0.005
   21  0.000  0.004  0.008  0.012
   22  0.001  0.001  0.005  0.007
   23  0.000  0.004  0.008  0.012
   24  0.000  0.000  0.018  0.018
   25  0.000  0.001  0.008  0.008
   26  0.000  0.004  0.005  0.009
   27  0.001  0.001  0.004  0.006
   28  0.000  0.002  0.001  0.003
   29  0.013  0.001  0.012  0.026
   30  0.000  0.002  0.012  0.014
   31  0.014  0.001  0.012  0.027
   32  0.014  0.001  0.013  0.027
   33  0.000  0.002  0.012  0.014
   34  0.013  0.001  0.013  0.027
   35  0.000  0.002  0.003  0.005
   36  0.000  0.000  0.226  0.227
   37  0.000  0.007  0.000  0.007
tot    0.192  0.083  0.476  0.751
 
band    16 # energy   -5.09637225 # occ.  2.00000000
 
ion      s      p      d    tot
    1  0.003  0.002  0.003  0.007
    2  0.002  0.003  0.010  0.014
    3  0.002  0.003  0.010  0.014
    4  0.002  0.003  0.010  0.014
    5  0.051  0.003  0.000  0.055
    6  0.002  0.003  0.010  0.014
    7  0.002  0.003  0.010  0.014
    8  0.002  0.003  0.010  0.014
    9  0.003  0.002  0.005  0.009
   10  0.006  0.002  0.013  0.021
   11  0.007  0.005  0.012  0.024
   12  0.006  0.002  0.013  0.021
   13  0.007  0.005  0.012  0.024
   14  0.007  0.005  0.012  0.024
   15  0.016  0.001  0.015  0.032
   16  0.006  0.002  0.013  0.021
   17  0.016  0.001  0.015  0.032
   18  0.016  0.001  0.015  0.032
   19  0.005  0.003  0.005  0.012
   20  0.001  0.002  0.020  0.023
   21  0.001  0.002  0.020  0.023
   22  0.001  0.001  0.015  0.018
   23  0.001  0.002  0.020  0.023
   24  0.001  0.001  0.015  0.018
   25  0.005  0.003  0.005  0.012
   26  0.005  0.003  0.005  0.012
   27  0.001  0.001  0.015  0.018
   28  0.010  0.001  0.000  0.012
   29  0.000  0.003  0.010  0.013
   30  0.000  0.003  0.010  0.013
   31  0.000  0.003  0.010  0.013
   32  0.000  0.003  0.010  0.013
   33  0.000  0.003  0.010  0.013
   34  0.000  0.003  0.010  0.013
   35  0.010  0.001  0.000  0.011
   36  0.064  0.004  0.003  0.070
   37  0.004  0.004  0.000  0.008
tot    0.261  0.092  0.374  0.727
 
band    17 # energy   -4.95672848 # occ.  2.00000000
 
ion      s      p      d    tot
    1  0.033  0.003  0.000  0.036
    2  0.000  0.003  0.010  0.013
    3  0.000  0.003  0.010  0.013
    4  0.000  0.003  0.010  0.013
    5  0.000  0.000  0.000  0.001
    6  0.000  0.003  0.010  0.013
    7  0.000  0.003  0.010  0.013
    8  0.000  0.003  0.010  0.013
    9  0.032  0.004  0.001  0.036
   10  0.009  0.003  0.010  0.023
   11  0.001  0.000  0.015  0.016
   12  0.009  0.003  0.010  0.023
   13  0.001  0.000  0.015  0.016
   14  0.001  0.000  0.015  0.016
   15  0.008  0.004  0.016  0.028
   16  0.009  0.003  0.010  0.023
   17  0.008  0.004  0.016  0.028
   18  0.008  0.004  0.016  0.028
   19  0.004  0.003  0.019  0.027
   20  0.000  0.000  0.014  0.014
   21  0.000  0.000  0.014  0.014
   22  0.010  0.004  0.010  0.024
   23  0.000  0.000  0.014  0.014
   24  0.010  0.004  0.010  0.024
   25  0.004  0.003  0.019  0.027
   26  0.004  0.003  0.019  0.027
   27  0.010  0.004  0.010  0.024
   28  0.035  0.003  0.000  0.038
   29  0.000  0.003  0.010  0.014
   30  0.000  0.003  0.010  0.014
   31  0.000  0.003  0.010  0.014
   32  0.000  0.003  0.010  0.014
   33  0.000  0.003  0.010  0.014
   34  0.000  0.003  0.010  0.014
   35  0.030  0.004  0.001  0.035
   36  0.000  0.000  0.000  0.000
   37  0.000  0.000  0.000  0.000
tot    0.230  0.094  0.380  0.705
 
band    18 # energy   -4.84872143 # occ.  2.00000000
 
ion      s      p      d    tot
    1  0.000  0.001  0.006  0.007
    2  0.010  0.002  0.003  0.016
    3  0.000  0.001  0.003  0.004
    4  0.010  0.002  0.003  0.015
    5  0.000  0.003  0.005  0.008
    6  0.008  0.002  0.003  0.013
    7  0.000  0.001  0.003  0.004
    8  0.009  0.002  0.003  0.014
    9  0.000  0.001  0.008  0.009
   10  0.005  0.003  0.006  0.014
   11  0.002  0.001  0.015  0.019
   12  0.001  0.001  0.007  0.009
   13  0.002  0.001  0.016  0.019
   14  0.008  0.003  0.003  0.015
   15  0.000  0.001  0.013  0.014
   16  0.001  0.001  0.007  0.009
   17  0.000  0.001  0.014  0.015
   18  0.001  0.000  0.005  0.006
   19  0.001  0.004  0.018  0.023
   20  0.015  0.003  0.016  0.034
   21  0.003  0.001  0.012  0.016
   22  0.002  0.001  0.015  0.018
   23  0.004  0.001  0.012  0.018
   24  0.011  0.003  0.006  0.019
   25  0.004  0.000  0.008  0.011
   26  0.001  0.004  0.019  0.024
   27  0.003  0.002  0.014  0.018
   28  0.000  0.003  0.017  0.020
   29  0.024  0.003  0.006  0.032
   30  0.000  0.002  0.006  0.008
   31  0.022  0.003  0.006  0.030
   32  0.019  0.003  0.005  0.027
   33  0.000  0.002  0.006  0.009
   34  0.021  0.003  0.005  0.029
   35  0.000  0.002  0.015  0.017
   36  0.000  0.021  0.089  0.110
   37  0.000  0.043  0.000  0.043
tot    0.188  0.130  0.399  0.717
 
band    19 # energy   -4.84870205 # occ.  2.00000000
 
ion      s      p      d    tot
    1  0.000  0.001  0.006  0.007
    2  0.002  0.001  0.003  0.006
    3  0.012  0.002  0.003  0.018
    4  0.003  0.001  0.003  0.007
    5  0.000  0.003  0.005  0.008
    6  0.004  0.001  0.003  0.009
    7  0.012  0.002  0.003  0.018
    8  0.003  0.001  0.003  0.008
    9  0.000  0.001  0.008  0.009
   10  0.000  0.001  0.007  0.008
   11  0.006  0.002  0.008  0.016
   12  0.004  0.002  0.006  0.012
   13  0.007  0.003  0.007  0.016
   14  0.000  0.001  0.020  0.020
   15  0.000  0.000  0.008  0.009
   16  0.004  0.002  0.006  0.012
   17  0.000  0.000  0.008  0.008
   18  0.000  0.001  0.016  0.017
   19  0.003  0.002  0.011  0.016
   20  0.000  0.000  0.011  0.011
   21  0.012  0.003  0.015  0.029
   22  0.008  0.002  0.008  0.019
   23  0.011  0.002  0.014  0.028
   24  0.000  0.001  0.017  0.018
   25  0.000  0.006  0.022  0.027
   26  0.003  0.001  0.011  0.015
   27  0.008  0.002  0.009  0.019
   28  0.000  0.003  0.017  0.020
   29  0.005  0.002  0.006  0.013
   30  0.029  0.003  0.005  0.037
   31  0.007  0.002  0.005  0.015
   32  0.009  0.002  0.006  0.018
   33  0.028  0.003  0.005  0.037
   34  0.008  0.002  0.006  0.016
   35  0.000  0.002  0.015  0.017
   36  0.000  0.021  0.089  0.110
   37  0.000  0.043  0.000  0.043
tot    0.188  0.130  0.399  0.717
 
band    20 # energy   -4.70394707 # occ.  2.00000000
 
ion      s      p      d    tot
    1  0.002  0.000  0.002  0.004
    2  0.001  0.000  0.003  0.004
    3  0.001  0.000  0.003  0.004
    4  0.001  0.000  0.003  0.004
    5  0.000  0.001  0.003  0.004
    6  0.001  0.000  0.003  0.004
    7  0.001  0.000  0.003  0.004
    8  0.001  0.000  0.003  0.004
    9  0.002  0.000  0.002  0.004
   10  0.001  0.000  0.011  0.012
   11  0.002  0.001  0.012  0.015
   12  0.001  0.000  0.011  0.012
   13  0.002  0.001  0.012  0.015
   14  0.002  0.001  0.012  0.015
   15  0.001  0.000  0.012  0.013
   16  0.001  0.000  0.011  0.012
   17  0.001  0.000  0.012  0.013
   18  0.001  0.000  0.012  0.013
   19  0.003  0.000  0.020  0.023
   20  0.007  0.000  0.014  0.021
   21  0.007  0.000  0.014  0.021
   22  0.002  0.001  0.032  0.036
   23  0.007  0.000  0.014  0.021
   24  0.002  0.001  0.032  0.036
   25  0.003  0.000  0.020  0.023
   26  0.003  0.000  0.020  0.023
   27  0.002  0.001  0.032  0.036
   28  0.013  0.000  0.010  0.024
   29  0.004  0.003  0.017  0.024
   30  0.004  0.003  0.017  0.024
   31  0.004  0.003  0.017  0.024
   32  0.004  0.003  0.017  0.024
   33  0.004  0.003  0.017  0.024
   34  0.004  0.003  0.017  0.024
   35  0.033  0.000  0.012  0.045
   36  0.000  0.001  0.130  0.131
   37  0.016  0.058  0.000  0.074
tot    0.143  0.085  0.583  0.810
 
band    21 # energy   -4.64303707 # occ.  2.00000000
 
ion      s      p      d    tot
    1  0.000  0.002  0.016  0.018
    2  0.017  0.002  0.005  0.025
    3  0.003  0.001  0.005  0.010
    4  0.017  0.002  0.005  0.025
    5  0.000  0.000  0.012  0.013
    6  0.006  0.002  0.006  0.013
    7  0.003  0.001  0.005  0.010
    8  0.006  0.002  0.006  0.013
    9  0.000  0.004  0.004  0.009
   10  0.000  0.000  0.052  0.052
   11  0.001  0.002  0.013  0.016
   12  0.000  0.001  0.016  0.017
   13  0.001  0.002  0.013  0.016
   14  0.000  0.000  0.005  0.005
   15  0.002  0.005  0.014  0.022
   16  0.000  0.001  0.015  0.017
   17  0.002  0.005  0.014  0.022
   18  0.000  0.000  0.025  0.025
   19  0.019  0.001  0.009  0.029
   20  0.000  0.001  0.036  0.037
   21  0.000  0.001  0.018  0.019
   22  0.008  0.001  0.015  0.023
   23  0.000  0.001  0.018  0.019
   24  0.000  0.003  0.003  0.007
   25  0.000  0.000  0.032  0.032
   26  0.019  0.001  0.009  0.029
   27  0.008  0.001  0.015  0.023
   28  0.000  0.000  0.006  0.006
   29  0.000  0.002  0.016  0.019
   30  0.000  0.000  0.009  0.009
   31  0.000  0.003  0.016  0.019
   32  0.000  0.002  0.016  0.018
   33  0.000  0.000  0.009  0.009
   34  0.000  0.002  0.015  0.018
   35  0.000  0.000  0.005  0.006
   36  0.000  0.000  0.152  0.152