PROCAR new format
# of k-points:   10         # of bands:  252         # of ions:   38

 k-point     1 :    0.00000000 0.00000000 0.00000000     weight = 0.01562500

band     1 # energy  -23.95325811 # occ.  2.00000000
 
ion      s      p      d    tot
    1  0.000  0.000  0.000  0.000
    2  0.000  0.000  0.000  0.000
    3  0.000  0.000  0.000  0.000
    4  0.000  0.000  0.000  0.000
    5  0.000  0.000  0.000  0.000
    6  0.000  0.000  0.000  0.000
    7  0.000  0.000  0.000  0.000
    8  0.000  0.000  0.000  0.000
    9  0.000  0.000  0.000  0.000
   10  0.000  0.000  0.000  0.000
   11  0.000  0.000  0.000  0.000
   12  0.000  0.000  0.000  0.000
   13  0.000  0.000  0.000  0.000
   14  0.000  0.000  0.000  0.000
   15  0.000  0.000  0.000  0.000
   16  0.000  0.000  0.000  0.000
   17  0.000  0.000  0.000  0.000
   18  0.000  0.000  0.000  0.000
   19  0.000  0.000  0.000  0.000
   20  0.000  0.000  0.000  0.000
   21  0.000  0.000  0.000  0.000
   22  0.000  0.000  0.000  0.000
   23  0.000  0.000  0.000  0.000
   24  0.000  0.000  0.000  0.000
   25  0.000  0.000  0.000  0.000
   26  0.000  0.000  0.000  0.000
   27  0.000  0.000  0.000  0.000
   28  0.000  0.000  0.000  0.000
   29  0.000  0.000  0.000  0.000
   30  0.000  0.000  0.000  0.000
   31  0.000  0.000  0.000  0.000
   32  0.000  0.000  0.000  0.000
   33  0.000  0.000  0.000  0.000
   34  0.000  0.000  0.000  0.000
   35  0.000  0.000  0.000  0.000
   36  0.000  0.000  0.000  0.001
   37  0.159  0.116  0.000  0.274
   38  0.637  0.095  0.000  0.732
tot    0.796  0.211  0.000  1.006
 
band     2 # energy   -9.88695241 # occ.  2.00000000
 
ion      s      p      d    tot
    1  0.000  0.000  0.000  0.000
    2  0.000  0.000  0.000  0.000
    3  0.000  0.000  0.000  0.000
    4  0.000  0.000  0.000  0.000
    5  0.000  0.000  0.000  0.000
    6  0.000  0.000  0.000  0.000
    7  0.000  0.000  0.000  0.000
    8  0.000  0.000  0.000  0.000
    9  0.000  0.000  0.000  0.000
   10  0.001  0.000  0.000  0.001
   11  0.001  0.000  0.000  0.001
   12  0.001  0.000  0.000  0.001
   13  0.001  0.000  0.000  0.001
   14  0.001  0.000  0.000  0.001
   15  0.001  0.000  0.000  0.001
   16  0.001  0.000  0.000  0.001
   17  0.001  0.000  0.000  0.001
   18  0.001  0.000  0.000  0.001
   19  0.001  0.000  0.000  0.001
   20  0.003  0.000  0.000  0.004
   21  0.003  0.000  0.000  0.004
   22  0.001  0.000  0.000  0.001
   23  0.003  0.000  0.000  0.004
   24  0.001  0.000  0.000  0.001
   25  0.001  0.000  0.000  0.001
   26  0.001  0.000  0.000  0.001
   27  0.001  0.000  0.000  0.001
   28  0.001  0.000  0.000  0.001
   29  0.002  0.000  0.000  0.002
   30  0.002  0.000  0.000  0.002
   31  0.002  0.000  0.000  0.002
   32  0.002  0.000  0.000  0.002
   33  0.002  0.000  0.000  0.002
   34  0.002  0.000  0.000  0.002
   35  0.001  0.000  0.000  0.001
   36  0.053  0.028  0.097  0.178
   37  0.275  0.015  0.000  0.290
   38  0.121  0.158  0.000  0.279
tot    0.484  0.204  0.099  0.786
 
band     3 # energy   -9.26461097 # occ.  2.00000000
 
ion      s      p      d    tot
    1  0.007  0.001  0.000  0.008
    2  0.007  0.001  0.000  0.008
    3  0.007  0.001  0.000  0.008
    4  0.007  0.001  0.000  0.008
    5  0.007  0.001  0.000  0.008
    6  0.007  0.001  0.000  0.008
    7  0.007  0.001  0.000  0.008
    8  0.007  0.001  0.000  0.008
    9  0.007  0.001  0.000  0.008
   10  0.025  0.000  0.000  0.025
   11  0.024  0.000  0.000  0.025
   12  0.025  0.000  0.000  0.025
   13  0.024  0.000  0.000  0.025
   14  0.024  0.000  0.000  0.025
   15  0.025  0.000  0.000  0.025
   16  0.025  0.000  0.000  0.025
   17  0.025  0.000  0.000  0.025
   18  0.025  0.000  0.000  0.025
   19  0.023  0.000  0.000  0.024
   20  0.021  0.000  0.000  0.021
   21  0.021  0.000  0.000  0.021
   22  0.023  0.000  0.000  0.023
   23  0.021  0.000  0.000  0.021
   24  0.023  0.000  0.000  0.023
   25  0.023  0.000  0.000  0.024
   26  0.023  0.000  0.000  0.024
   27  0.023  0.000  0.000  0.023
   28  0.006  0.001  0.000  0.007
   29  0.005  0.001  0.000  0.006
   30  0.005  0.001  0.000  0.006
   31  0.005  0.001  0.000  0.006
   32  0.005  0.001  0.000  0.006
   33  0.005  0.001  0.000  0.006
   34  0.005  0.001  0.000  0.006
   35  0.006  0.001  0.000  0.007
   36  0.001  0.005  0.004  0.010
   37  0.015  0.000  0.000  0.015
   38  0.009  0.018  0.000  0.027
tot    0.553  0.039  0.005  0.597
 
band     4 # energy   -7.99608043 # occ.  2.00000000
 
ion      s      p      d    tot
    1  0.017  0.001  0.000  0.018
    2  0.017  0.001  0.000  0.018
    3  0.017  0.001  0.000  0.018
    4  0.017  0.001  0.000  0.018
    5  0.017  0.001  0.000  0.018
    6  0.017  0.001  0.000  0.018
    7  0.017  0.001  0.000  0.018
    8  0.017  0.001  0.000  0.018
    9  0.017  0.001  0.000  0.018
   10  0.009  0.002  0.001  0.012
   11  0.009  0.002  0.000  0.012
   12  0.009  0.002  0.001  0.012
   13  0.009  0.002  0.000  0.012
   14  0.009  0.002  0.000  0.012
   15  0.009  0.002  0.001  0.012
   16  0.009  0.002  0.001  0.012
   17  0.009  0.002  0.001  0.012
   18  0.009  0.002  0.001  0.012
   19  0.010  0.002  0.001  0.013
   20  0.009  0.002  0.001  0.012
   21  0.009  0.002  0.001  0.012
   22  0.010  0.002  0.001  0.013
   23  0.009  0.002  0.001  0.012
   24  0.010  0.002  0.001  0.013
   25  0.010  0.002  0.001  0.013
   26  0.010  0.002  0.001  0.013
   27  0.010  0.002  0.001  0.013
   28  0.018  0.001  0.000  0.019
   29  0.017  0.001  0.000  0.018
   30  0.017  0.001  0.000  0.018
   31  0.017  0.001  0.000  0.018
   32  0.017  0.001  0.000  0.018
   33  0.017  0.001  0.000  0.018
   34  0.017  0.001  0.000  0.018
   35  0.018  0.001  0.000  0.019
   36  0.021  0.000  0.000  0.022
   37  0.001  0.010  0.000  0.012
   38  0.007  0.035  0.000  0.042
tot    0.490  0.096  0.017  0.603
 
band     5 # energy   -7.32093199 # occ.  2.00000000
 
ion      s      p      d    tot
    1  0.001  0.000  0.000  0.001
    2  0.001  0.000  0.000  0.001
    3  0.001  0.000  0.000  0.001
    4  0.001  0.000  0.000  0.001
    5  0.002  0.000  0.000  0.002
    6  0.001  0.000  0.000  0.001
    7  0.001  0.000  0.000  0.001
    8  0.001  0.000  0.000  0.001
    9  0.001  0.000  0.000  0.001
   10  0.000  0.000  0.000  0.000
   11  0.001  0.000  0.000  0.001
   12  0.000  0.000  0.000  0.000
   13  0.001  0.000  0.000  0.001
   14  0.001  0.000  0.000  0.001
   15  0.000  0.000  0.000  0.001
   16  0.000  0.000  0.000  0.000
   17  0.000  0.000  0.000  0.001
   18  0.000  0.000  0.000  0.001
   19  0.004  0.000  0.000  0.004
   20  0.000  0.002  0.003  0.005
   21  0.000  0.002  0.003  0.005
   22  0.003  0.000  0.000  0.004
   23  0.000  0.002  0.003  0.005
   24  0.003  0.000  0.000  0.004
   25  0.004  0.000  0.000  0.004
   26  0.004  0.000  0.000  0.004
   27  0.003  0.000  0.000  0.004
   28  0.003  0.000  0.000  0.003
   29  0.001  0.001  0.000  0.002
   30  0.001  0.001  0.000  0.002
   31  0.001  0.001  0.000  0.002
   32  0.001  0.001  0.000  0.002
   33  0.001  0.001  0.000  0.002
   34  0.001  0.001  0.000  0.002
   35  0.003  0.000  0.000  0.003
   36  0.037  0.022  0.189  0.248
   37  0.009  0.211  0.000  0.220
   38  0.033  0.312  0.000  0.345
tot    0.124  0.558  0.203  0.885
 
band     6 # energy   -6.90741111 # occ.  2.00000000
 
ion      s      p      d    tot
    1  0.000  0.000  0.000  0.000
    2  0.000  0.000  0.000  0.000
    3  0.000  0.000  0.000  0.000
    4  0.000  0.000  0.000  0.000
    5  0.000  0.000  0.000  0.000
    6  0.000  0.000  0.000  0.000
    7  0.000  0.000  0.000  0.000
    8  0.000  0.000  0.000  0.000
    9  0.000  0.000  0.000  0.000
   10  0.000  0.000  0.000  0.000
   11  0.000  0.000  0.000  0.000
   12  0.000  0.000  0.000  0.000
   13  0.000  0.000  0.000  0.000
   14  0.000  0.000  0.000  0.000
   15  0.000  0.000  0.000  0.000
   16  0.000  0.000  0.000  0.000
   17  0.000  0.000  0.000  0.000
   18  0.000  0.000  0.000  0.000
   19  0.000  0.000  0.000  0.000
   20  0.000  0.000  0.000  0.001
   21  0.000  0.000  0.000  0.000
   22  0.000  0.000  0.000  0.000
   23  0.000  0.000  0.000  0.000
   24  0.000  0.000  0.000  0.000
   25  0.000  0.000  0.000  0.000
   26  0.000  0.000  0.000  0.000
   27  0.000  0.000  0.000  0.000
   28  0.000  0.000  0.000  0.000
   29  0.000  0.000  0.001  0.002
   30  0.000  0.000  0.000  0.000
   31  0.000  0.000  0.001  0.002
   32  0.000  0.000  0.001  0.002
   33  0.000  0.000  0.000  0.000
   34  0.000  0.000  0.001  0.002
   35  0.000  0.000  0.000  0.000
   36  0.000  0.003  0.045  0.049
   37  0.000  0.183  0.000  0.183
   38  0.000  0.436  0.000  0.436
tot    0.003  0.625  0.051  0.679
 
band     7 # energy   -6.90732524 # occ.  2.00000000
 
ion      s      p      d    tot
    1  0.000  0.000  0.000  0.000
    2  0.000  0.000  0.000  0.000
    3  0.000  0.000  0.000  0.000
    4  0.000  0.000  0.000  0.000
    5  0.000  0.000  0.000  0.000
    6  0.000  0.000  0.000  0.000
    7  0.000  0.000  0.000  0.000
    8  0.000  0.000  0.000  0.000
    9  0.000  0.000  0.000  0.000
   10  0.000  0.000  0.000  0.000
   11  0.000  0.000  0.000  0.000
   12  0.000  0.000  0.000  0.000
   13  0.000  0.000  0.000  0.000
   14  0.000  0.000  0.000  0.000
   15  0.000  0.000  0.000  0.000
   16  0.000  0.000  0.000  0.000
   17  0.000  0.000  0.000  0.000
   18  0.000  0.000  0.000  0.000
   19  0.000  0.000  0.000  0.000
   20  0.000  0.000  0.000  0.000
   21  0.000  0.000  0.000  0.001
   22  0.000  0.000  0.000  0.000
   23  0.000  0.000  0.000  0.001
   24  0.000  0.000  0.000  0.000
   25  0.000  0.000  0.000  0.000
   26  0.000  0.000  0.000  0.000
   27  0.000  0.000  0.000  0.000
   28  0.000  0.000  0.000  0.000
   29  0.000  0.000  0.000  0.001
   30  0.001  0.000  0.001  0.002
   31  0.000  0.000  0.000  0.001
   32  0.000  0.000  0.000  0.001
   33  0.001  0.000  0.001  0.002
   34  0.000  0.000  0.000  0.001
   35  0.000  0.000  0.000  0.000
   36  0.000  0.003  0.045  0.049
   37  0.000  0.183  0.000  0.183
   38  0.000  0.436  0.000  0.436
tot    0.003  0.625  0.051  0.679
 
band     8 # energy   -6.39787822 # occ.  2.00000000
 
ion      s      p      d    tot
    1  0.017  0.000  0.006  0.022
    2  0.015  0.000  0.006  0.021
    3  0.015  0.000  0.006  0.021
    4  0.015  0.000  0.006  0.021
    5  0.007  0.000  0.007  0.014
    6  0.015  0.000  0.006  0.021
    7  0.015  0.000  0.006  0.021
    8  0.015  0.000  0.006  0.021
    9  0.024  0.000  0.004  0.028
   10  0.003  0.003  0.003  0.009
   11  0.011  0.005  0.001  0.017
   12  0.003  0.003  0.003  0.009
   13  0.011  0.005  0.001  0.017
   14  0.011  0.005  0.001  0.017
   15  0.000  0.003  0.004  0.007
   16  0.003  0.003  0.003  0.009
   17  0.000  0.003  0.004  0.007
   18  0.000  0.003  0.004  0.007
   19  0.001  0.003  0.005  0.009
   20  0.016  0.004  0.003  0.023
   21  0.016  0.004  0.003  0.023
   22  0.001  0.004  0.003  0.008
   23  0.016  0.004  0.003  0.023
   24  0.001  0.004  0.003  0.008
   25  0.001  0.003  0.005  0.009
   26  0.001  0.003  0.005  0.009
   27  0.001  0.004  0.003  0.008
   28  0.021  0.000  0.005  0.026
   29  0.016  0.000  0.007  0.023
   30  0.016  0.000  0.007  0.023
   31  0.016  0.000  0.007  0.023
   32  0.016  0.000  0.007  0.023
   33  0.016  0.000  0.007  0.023
   34  0.016  0.000  0.007  0.023
   35  0.024  0.000  0.005  0.029
   36  0.007  0.002  0.020  0.029
   37  0.000  0.001  0.000  0.001
   38  0.000  0.002  0.000  0.002
tot    0.383  0.072  0.177  0.632
 
band     9 # energy   -6.32640670 # occ.  2.00000000
 
ion      s      p      d    tot
    1  0.000  0.003  0.005  0.008
    2  0.009  0.002  0.002  0.014
    3  0.004  0.001  0.002  0.007
    4  0.009  0.002  0.002  0.014
    5  0.000  0.002  0.003  0.004
    6  0.001  0.001  0.002  0.004
    7  0.004  0.001  0.002  0.007
    8  0.001  0.001  0.002  0.004
    9  0.000  0.000  0.003  0.003
   10  0.060  0.004  0.004  0.068
   11  0.003  0.010  0.003  0.016
   12  0.015  0.004  0.011  0.030
   13  0.003  0.010  0.003  0.016
   14  0.013  0.000  0.006  0.020
   15  0.004  0.003  0.010  0.016
   16  0.015  0.004  0.011  0.030
   17  0.004  0.003  0.010  0.016
   18  0.016  0.004  0.002  0.022
   19  0.011  0.009  0.005  0.025
   20  0.055  0.005  0.004  0.064
   21  0.014  0.001  0.014  0.029
   22  0.000  0.007  0.005  0.012
   23  0.014  0.001  0.014  0.029
   24  0.000  0.002  0.004  0.006
   25  0.042  0.001  0.007  0.050
   26  0.011  0.009  0.005  0.025
   27  0.000  0.007  0.005  0.012
   28  0.000  0.004  0.005  0.008
   29  0.010  0.003  0.003  0.016
   30  0.007  0.002  0.003  0.012
   31  0.010  0.003  0.003  0.016
   32  0.000  0.001  0.003  0.004
   33  0.007  0.002  0.003  0.011
   34  0.000  0.001  0.003  0.004
   35  0.000  0.000  0.002  0.003
   36  0.000  0.003  0.015  0.018
   37  0.000  0.000  0.000  0.000
   38  0.000  0.002  0.000  0.002
tot    0.344  0.116  0.185  0.646
 
band    10 # energy   -6.32615368 # occ.  2.00000000
 
ion      s      p      d    tot
    1  0.000  0.003  0.005  0.008
    2  0.000  0.001  0.002  0.003
    3  0.006  0.002  0.002  0.010
    4  0.000  0.001  0.002  0.003
    5  0.000  0.002  0.003  0.004
    6  0.008  0.002  0.002  0.012
    7  0.006  0.002  0.002  0.010
    8  0.008  0.002  0.002  0.012
    9  0.000  0.000  0.003  0.003
   10  0.000  0.004  0.013  0.017
   11  0.010  0.003  0.005  0.019
   12  0.045  0.004  0.007  0.055
   13  0.010  0.003  0.005  0.018
   14  0.000  0.013  0.002  0.015
   15  0.012  0.003  0.005  0.020
   16  0.045  0.004  0.007  0.055
   17  0.012  0.003  0.005  0.020
   18  0.000  0.002  0.012  0.014
   19  0.032  0.004  0.006  0.042
   20  0.000  0.000  0.018  0.018
   21  0.041  0.003  0.007  0.052
   22  0.000  0.003  0.005  0.008
   23  0.042  0.003  0.007  0.052
   24  0.000  0.009  0.006  0.014
   25  0.000  0.012  0.005  0.017
   26  0.032  0.004  0.006  0.042
   27  0.000  0.003  0.005  0.008
   28  0.000  0.004  0.005  0.008
   29  0.002  0.001  0.003  0.005
   30  0.004  0.002  0.003  0.009
   31  0.002  0.001  0.003  0.005
   32  0.011  0.003  0.003  0.017
   33  0.005  0.002  0.003  0.009
   34  0.011  0.003  0.003  0.017
   35  0.000  0.000  0.002  0.003
   36  0.000  0.003  0.015  0.018
   37  0.000  0.000  0.000  0.000
   38  0.000  0.002  0.000  0.002
tot    0.344  0.116  0.185  0.646
 
band    11 # energy   -6.30166718 # occ.  2.00000000
 
ion      s      p      d    tot
    1  0.000  0.000  0.002  0.002
    2  0.010  0.002  0.002  0.014
    3  0.004  0.001  0.002  0.007
    4  0.009  0.002  0.002  0.014
    5  0.000  0.002  0.005  0.007
    6  0.001  0.001  0.002  0.004
    7  0.004  0.001  0.002  0.007
    8  0.001  0.001  0.002  0.004
    9  0.000  0.003  0.004  0.007
   10  0.000  0.009  0.005  0.014
   11  0.036  0.004  0.006  0.045
   12  0.000  0.003  0.005  0.008
   13  0.035  0.004  0.006  0.045
   14  0.000  0.000  0.016  0.016
   15  0.033  0.004  0.006  0.042
   16  0.000  0.003  0.005  0.008
   17  0.032  0.004  0.006  0.042
   18  0.000  0.011  0.006  0.016
   19  0.016  0.004  0.005  0.025
   20  0.000  0.014  0.001  0.015
   21  0.009  0.004  0.005  0.017
   22  0.047  0.004  0.007  0.058
   23  0.009  0.004  0.005  0.017
   24  0.000  0.005  0.013  0.018
   25  0.000  0.002  0.014  0.016
   26  0.016  0.004  0.005  0.025
   27  0.048  0.004  0.007  0.058
   28  0.000  0.000  0.004  0.004
   29  0.011  0.003  0.003  0.016
   30  0.005  0.002  0.003  0.011
   31  0.011  0.003  0.003  0.016
   32  0.001  0.001  0.002  0.004
   33  0.005  0.002  0.003  0.010
   34  0.001  0.001  0.002  0.004
   35  0.000  0.004  0.006  0.010
   36  0.000  0.002  0.009  0.011
   37  0.000  0.000  0.000  0.000
   38  0.000  0.000  0.000  0.000
tot    0.344  0.117  0.181  0.641
 
band    12 # energy   -6.30142704 # occ.  2.00000000
 
ion      s      p      d    tot
    1  0.000  0.000  0.002  0.002
    2  0.000  0.001  0.002  0.003
    3  0.006  0.002  0.002  0.010
    4  0.000  0.001  0.002  0.003
    5  0.000  0.002  0.005  0.007
    6  0.008  0.002  0.002  0.013
    7  0.006  0.002  0.002  0.010
    8  0.009  0.002  0.002  0.013
    9  0.000  0.003  0.004  0.008
   10  0.000  0.002  0.004  0.006
   11  0.012  0.001  0.013  0.026
   12  0.000  0.007  0.005  0.012
   13  0.013  0.001  0.013  0.027
   14  0.046  0.005  0.002  0.053
   15  0.010  0.008  0.006  0.024
   16  0.000  0.007  0.005  0.012
   17  0.010  0.008  0.006  0.024
   18  0.045  0.001  0.007  0.053
   19  0.006  0.002  0.011  0.020
   20  0.011  0.000  0.007  0.019
   21  0.003  0.011  0.002  0.016
   22  0.018  0.005  0.011  0.033
   23  0.003  0.011  0.002  0.016
   24  0.060  0.004  0.005  0.068
   25  0.020  0.005  0.002  0.027
   26  0.006  0.002  0.011  0.020
   27  0.017  0.005  0.011  0.032
   28  0.000  0.000  0.004  0.004
   29  0.001  0.001  0.003  0.005
   30  0.006  0.002  0.002  0.010
   31  0.001  0.001  0.003  0.005
   32  0.010  0.003  0.003  0.016
   33  0.006  0.002  0.002  0.010
   34  0.010  0.003  0.003  0.016
   35  0.000  0.004  0.006  0.010
   36  0.000  0.002  0.009  0.011
   37  0.000  0.000  0.000  0.000
   38  0.000  0.000  0.000  0.000
tot    0.344  0.117  0.181  0.641
 
band    13 # energy   -6.29948771 # occ.  2.00000000
 
ion      s      p      d    tot
    1  0.020  0.003  0.001  0.025
    2  0.000  0.002  0.004  0.006
    3  0.000  0.002  0.004  0.006
    4  0.000  0.002  0.004  0.006
    5  0.001  0.000  0.000  0.002
    6  0.000  0.002  0.004  0.006
    7  0.000  0.002  0.004  0.006
    8  0.000  0.002  0.004  0.006
    9  0.010  0.002  0.000  0.012
   10  0.030  0.005  0.006  0.041
   11  0.004  0.000  0.011  0.015
   12  0.030  0.006  0.006  0.041
   13  0.004  0.000  0.011  0.015
   14  0.006  0.001  0.011  0.018
   15  0.014  0.008  0.003  0.025
   16  0.030  0.006  0.006  0.041
   17  0.014  0.008  0.003  0.025
   18  0.011  0.008  0.003  0.022
   19  0.021  0.010  0.002  0.032
   20  0.000  0.002  0.009  0.012
   21  0.000  0.002  0.010  0.013
   22  0.024  0.003  0.009  0.036
   23  0.000  0.002  0.010  0.013
   24  0.029  0.002  0.009  0.040
   25  0.024  0.009  0.002  0.034
   26  0.021  0.010  0.002  0.032
   27  0.024  0.003  0.009  0.035
   28  0.019  0.003  0.000  0.022
   29  0.000  0.002  0.004  0.006
   30  0.000  0.002  0.004  0.006
   31  0.000  0.002  0.004  0.006
   32  0.000  0.002  0.004  0.006
   33  0.000  0.002  0.004  0.006
   34  0.000  0.002  0.004  0.006
   35  0.014  0.002  0.001  0.018
   36  0.000  0.000  0.000  0.000
   37  0.000  0.000  0.000  0.000
   38  0.000  0.000  0.000  0.000
tot    0.347  0.116  0.176  0.639
 
band    14 # energy   -6.17886149 # occ.  2.00000000
 
ion      s      p      d    tot
    1  0.000  0.000  0.001  0.001
    2  0.001  0.002  0.006  0.010
    3  0.001  0.002  0.006  0.010
    4  0.001  0.002  0.006  0.010
    5  0.038  0.003  0.000  0.042
    6  0.001  0.002  0.006  0.010
    7  0.001  0.002  0.006  0.010
    8  0.001  0.002  0.006  0.010
    9  0.005  0.002  0.003  0.011
   10  0.003  0.004  0.009  0.016
   11  0.023  0.009  0.004  0.036
   12  0.003  0.005  0.009  0.016
   13  0.023  0.009  0.004  0.036
   14  0.023  0.009  0.004  0.036
   15  0.027  0.002  0.012  0.040
   16  0.003  0.005  0.009  0.016
   17  0.027  0.002  0.012  0.040
   18  0.027  0.002  0.012  0.040
   19  0.007  0.001  0.009  0.017
   20  0.017  0.004  0.007  0.028
   21  0.017  0.004  0.007  0.028
   22  0.006  0.006  0.005  0.017
   23  0.017  0.004  0.007  0.028
   24  0.006  0.006  0.005  0.017
   25  0.007  0.001  0.009  0.017
   26  0.007  0.001  0.009  0.017
   27  0.006  0.006  0.005  0.017
   28  0.000  0.000  0.003  0.003
   29  0.002  0.001  0.003  0.006
   30  0.002  0.001  0.003  0.006
   31  0.002  0.001  0.003  0.006
   32  0.002  0.001  0.003  0.006
   33  0.002  0.001  0.003  0.006
   34  0.002  0.001  0.003  0.006
   35  0.000  0.001  0.001  0.002
   36  0.008  0.008  0.016  0.032
   37  0.002  0.007  0.000  0.009
   38  0.000  0.005  0.000  0.005
tot    0.326  0.122  0.215  0.663
 
band    15 # energy   -5.57746814 # occ.  2.00000000
 
ion      s      p      d    tot
    1  0.000  0.003  0.010  0.014
    2  0.018  0.003  0.005  0.026
    3  0.001  0.001  0.005  0.007
    4  0.018  0.003  0.005  0.026
    5  0.000  0.000  0.010  0.010
    6  0.012  0.003  0.005  0.020
    7  0.001  0.002  0.005  0.007
    8  0.012  0.003  0.005  0.020
    9  0.000  0.005  0.008  0.013
   10  0.000  0.004  0.019  0.023
   11  0.004  0.002  0.009  0.015
   12  0.006  0.002  0.009  0.017
   13  0.004  0.002  0.009  0.015
   14  0.000  0.002  0.014  0.016
   15  0.019  0.004  0.009  0.032
   16  0.006  0.002  0.009  0.017
   17  0.019  0.004  0.009  0.032
   18  0.000  0.000  0.022  0.022
   19  0.010  0.004  0.010  0.024
   20  0.000  0.003  0.017  0.019
   21  0.000  0.001  0.012  0.013
   22  0.008  0.003  0.009  0.021
   23  0.000  0.001  0.012  0.013
   24  0.000  0.002  0.029  0.030
   25  0.000  0.000  0.015  0.015
   26  0.010  0.004  0.010  0.024
   27  0.008  0.003  0.009  0.021
   28  0.000  0.004  0.007  0.011
   29  0.021  0.003  0.007  0.031
   30  0.000  0.002  0.007  0.010
   31  0.021  0.003  0.007  0.031
   32  0.016  0.002  0.007  0.026
   33  0.000  0.002  0.007  0.010
   34  0.017  0.002  0.007  0.026
   35  0.000  0.005  0.009  0.014
   36  0.000  0.000  0.038  0.038
   37  0.000  0.000  0.000  0.000
   38  0.000  0.000  0.000  0.000
tot    0.229  0.092  0.387  0.707
 
band    16 # energy   -5.57744063 # occ.  2.00000000
 
ion      s      p      d    tot
    1  0.000  0.003  0.010  0.014
    2  0.002  0.002  0.005  0.009
    3  0.020  0.004  0.005  0.028
    4  0.002  0.002  0.005  0.009
    5  0.000  0.000  0.010  0.010
    6  0.008  0.002  0.005  0.015
    7  0.019  0.004  0.005  0.028
    8  0.008  0.002  0.005  0.015
    9  0.000  0.005  0.008  0.013
   10  0.008  0.001  0.006  0.015
   11  0.001  0.002  0.013  0.016
   12  0.002  0.003  0.016  0.021
   13  0.001  0.002  0.013  0.016
   14  0.005  0.002  0.008  0.014
   15  0.006  0.001  0.018  0.025
   16  0.002  0.003  0.016  0.021
   17  0.006  0.001  0.018  0.025
   18  0.025  0.005  0.005  0.035
   19  0.003  0.001  0.013  0.018
   20  0.000  0.001  0.010  0.011
   21  0.000  0.002  0.015  0.017
   22  0.003  0.002  0.022  0.027
   23  0.000  0.002  0.015  0.017
   24  0.011  0.003  0.003  0.017
   25  0.013  0.006  0.008  0.027
   26  0.003  0.001  0.013  0.018
   27  0.003  0.002  0.022  0.027
   28  0.000  0.004  0.007  0.011
   29  0.004  0.002  0.007  0.013
   30  0.025  0.003  0.007  0.035
   31  0.004  0.002  0.007  0.014
   32  0.009  0.003  0.007  0.019
   33  0.025  0.003  0.007  0.035
   34  0.009  0.003  0.007  0.018
   35  0.000  0.005  0.009  0.014
   36  0.000  0.000  0.038  0.038
   37  0.000  0.000  0.000  0.000
   38  0.000  0.000  0.000  0.000
tot    0.229  0.092  0.387  0.707
 
band    17 # energy   -5.56404397 # occ.  2.00000000
 
ion      s      p      d    tot
    1  0.005  0.001  0.010  0.015
    2  0.005  0.001  0.009  0.015
    3  0.005  0.001  0.009  0.015
    4  0.005  0.001  0.009  0.015
    5  0.002  0.001  0.009  0.012
    6  0.005  0.001  0.009  0.015
    7  0.005  0.001  0.009  0.015
    8  0.005  0.001  0.009  0.015
    9  0.010  0.000  0.008  0.019
   10  0.008  0.000  0.025  0.033
   11  0.008  0.000  0.022  0.031
   12  0.008  0.000  0.025  0.033
   13  0.008  0.000  0.022  0.031
   14  0.008  0.000  0.022  0.031
   15  0.004  0.000  0.023  0.028
   16  0.008  0.000  0.025  0.033
   17  0.004  0.000  0.023  0.028
   18  0.004  0.000  0.023  0.028
   19  0.006  0.000  0.021  0.027
   20  0.008  0.000  0.024  0.033
   21  0.008  0.000  0.024  0.033
   22  0.004  0.000  0.021  0.025
   23  0.008  0.000  0.024  0.033
   24  0.004  0.000  0.021  0.025
   25  0.006  0.000  0.021  0.027
   26  0.006  0.000  0.021  0.027
   27  0.004  0.000  0.021  0.025
   28  0.003  0.001  0.007  0.010
   29  0.004  0.000  0.008  0.012
   30  0.004  0.000  0.008  0.012
   31  0.004  0.000  0.008  0.012
   32  0.004  0.000  0.008  0.012
   33  0.004  0.000  0.008  0.012
   34  0.004  0.000  0.008  0.012
   35  0.006  0.000  0.007  0.013
   36  0.004  0.003  0.013  0.020
   37  0.000  0.001  0.000  0.001
   38  0.000  0.001  0.000  0.001
tot    0.201  0.015  0.564  0.780
 
band    18 # energy   -5.53471011 # occ.  2.00000000
 
ion      s      p      d    tot
    1  0.000  0.003  0.010  0.012
    2  0.020  0.004  0.006  0.029
    3  0.001  0.002  0.005  0.008
    4  0.020  0.004  0.006  0.029
    5  0.000  0.006  0.010  0.016
    6  0.012  0.003  0.006  0.020
    7  0.001  0.002  0.005  0.008
    8  0.012  0.003  0.006  0.021
    9  0.000  0.001  0.013  0.013
   10  0.017  0.005  0.009  0.030
   11  0.005  0.003  0.021  0.029
   12  0.004  0.001  0.017  0.022
   13  0.005  0.003  0.022  0.029
   14  0.019  0.004  0.005  0.028
   15  0.000  0.003  0.015  0.018
   16  0.005  0.001  0.016  0.022
   17  0.000  0.003  0.016  0.018
   18  0.000  0.000  0.009  0.009
   19  0.001  0.002  0.018  0.021
   20  0.021  0.006  0.004  0.030
   21  0.005  0.002  0.023  0.030
   22  0.002  0.001  0.012  0.016
   23  0.005  0.002  0.023  0.030
   24  0.007  0.003  0.010  0.020
   25  0.003  0.000  0.007  0.010
   26  0.001  0.003  0.018  0.021
   27  0.002  0.002  0.012  0.016
   28  0.000  0.002  0.011  0.013
   29  0.016  0.003  0.006  0.025
   30  0.000  0.001  0.005  0.006
   31  0.015  0.003  0.006  0.024
   32  0.011  0.003  0.006  0.019
   33  0.000  0.001  0.005  0.006
   34  0.011  0.003  0.006  0.020
   35  0.000  0.001  0.009  0.009
   36  0.000  0.008  0.024  0.032
   37  0.000  0.000  0.000  0.000
   38  0.000  0.000  0.000  0.000
tot    0.220  0.095  0.398  0.713
 
band    19 # energy   -5.53466581 # occ.  2.00000000
 
ion      s      p      d    tot
    1  0.000  0.003  0.010  0.012
    2  0.002  0.002  0.005  0.009
    3  0.021  0.004  0.006  0.031
    4  0.002  0.002  0.005  0.010
    5  0.000  0.006  0.010  0.016
    6  0.010  0.003  0.005  0.018
    7  0.021  0.004  0.006  0.031
    8  0.010  0.003  0.005  0.018
    9  0.000  0.001  0.013  0.013
   10  0.000  0.000  0.019  0.019
   11  0.014  0.003  0.011  0.028
   12  0.013  0.004  0.011  0.028
   13  0.014  0.003  0.010  0.028
   14  0.000  0.002  0.027  0.029
   15  0.000  0.001  0.011  0.012
   16  0.013  0.004  0.011  0.028
   17  0.000  0.001  0.011  0.012
   18  0.000  0.004  0.018  0.021
   19  0.002  0.001  0.011  0.014
   20  0.000  0.001  0.030  0.030
   21  0.016  0.004  0.010  0.030
   22  0.005  0.003  0.011  0.019
   23  0.015  0.004  0.011  0.030
   24  0.000  0.001  0.013  0.014
   25  0.000  0.003  0.022  0.025
   26  0.002  0.001  0.010  0.013
   27  0.005  0.002  0.011  0.018
   28  0.000  0.002  0.011  0.013
   29  0.002  0.002  0.005  0.009
   30  0.018  0.004  0.006  0.028
   31  0.003  0.002  0.005  0.009
   32  0.007  0.002  0.005  0.014
   33  0.018  0.004  0.006  0.027
   34  0.007  0.002  0.005  0.014
   35  0.000  0.001  0.009  0.009
   36  0.000  0.008  0.024  0.032
   37  0.000  0.000  0.000  0.000
   38  0.000  0.000  0.000  0.000
tot    0.220  0.095  0.398  0.713
 
band    20 # energy   -5.53405697 # occ.  2.00000000
 
ion      s      p      d    tot
    1  0.034  0.003  0.000  0.038
    2  0.000  0.003  0.010  0.013
    3  0.000  0.003  0.010  0.013
    4  0.000  0.003  0.010  0.013
    5  0.000  0.000  0.000  0.000
    6  0.000  0.003  0.010  0.013
    7  0.000  0.003  0.010  0.013
    8  0.000  0.003  0.010  0.013
    9  0.030  0.004  0.001  0.034
   10  0.009  0.004  0.011  0.023
   11  0.001  0.000  0.015  0.016
   12  0.009  0.004  0.011  0.023
   13  0.001  0.000  0.015  0.016
   14  0.001  0.000  0.015  0.016
   15  0.007  0.003  0.018  0.028
   16  0.009  0.004  0.011  0.023
   17  0.007  0.003  0.018  0.028
   18  0.007  0.003  0.017  0.028
   19  0.005  0.004  0.018  0.027
   20  0.000  0.000  0.014  0.014
   21  0.000  0.000  0.014  0.014
   22  0.011  0.004  0.010  0.025
   23  0.000  0.000  0.014  0.014
   24  0.011  0.004  0.010  0.025
   25  0.005  0.004  0.018  0.027
   26  0.005  0.004  0.018  0.027
   27  0.011  0.004  0.010  0.025
   28  0.037  0.003  0.000  0.040
   29  0.000  0.003  0.010  0.013
   30  0.000  0.003  0.010  0.013
   31  0.000  0.003  0.010  0.013
   32  0.000  0.003  0.010  0.013
   33  0.000  0.003  0.010  0.013
   34  0.000  0.003  0.010  0.013
   35  0.029  0.004  0.001  0.034
   36  0.000  0.000  0.000  0.000
   37  0.000  0.000  0.000  0.000
   38  0.000  0.000  0.000  0.000
tot    0.230  0.094  0.380  0.704
 
band    21 # energy   -5.34653940 # occ.  2.00000000
 
ion      s      p      d    tot
    1  0.016  0.001  0.000  0.017
    2  0.000  0.003  0.011  0.014
    3  0.000  0.003  0.011  0.014
    4  0.000  0.003  0.011  0.014
    5  0.042  0.004  0.000  0.046
    6  0.000  0.003  0.011  0.014
    7  0.000  0.003  0.011  0.014
    8  0.000  0.003  0.011  0.014
    9  0.006  0.001  0.000  0.007
   10  0.001  0.001  0.029  0.030
   11  0.004  0.004  0.022  0.031
   12  0.001  0.001  0.029  0.030
   13  0.004  0.004  0.022  0.031
   14  0.004  0.004  0.022  0.031
   15  0.002  0.001  0.007  0.011
   16  0.001  0.001  0.029  0.030