PROCAR new format
# of k-points:   10         # of bands:  252         # of ions:   37

 k-point     1 :    0.00000000 0.00000000 0.00000000     weight = 0.01562500

band     1 # energy   -9.43331896 # occ.  2.00000000
 
ion      s      p      d    tot
    1  0.000  0.000  0.000  0.000
    2  0.000  0.000  0.000  0.000
    3  0.000  0.000  0.000  0.000
    4  0.000  0.000  0.000  0.000
    5  0.000  0.000  0.000  0.000
    6  0.000  0.000  0.000  0.000
    7  0.000  0.000  0.000  0.000
    8  0.000  0.000  0.000  0.000
    9  0.000  0.000  0.000  0.000
   10  0.000  0.000  0.000  0.000
   11  0.000  0.000  0.000  0.000
   12  0.000  0.000  0.000  0.000
   13  0.000  0.000  0.000  0.000
   14  0.000  0.000  0.000  0.000
   15  0.000  0.000  0.000  0.000
   16  0.000  0.000  0.000  0.000
   17  0.000  0.000  0.000  0.000
   18  0.000  0.000  0.000  0.000
   19  0.000  0.000  0.000  0.000
   20  0.001  0.000  0.001  0.002
   21  0.001  0.000  0.001  0.002
   22  0.000  0.000  0.000  0.000
   23  0.001  0.000  0.001  0.002
   24  0.000  0.000  0.000  0.000
   25  0.000  0.000  0.000  0.000
   26  0.000  0.000  0.000  0.000
   27  0.000  0.000  0.000  0.000
   28  0.000  0.000  0.000  0.000
   29  0.001  0.001  0.001  0.003
   30  0.001  0.001  0.001  0.003
   31  0.001  0.001  0.001  0.003
   32  0.001  0.001  0.001  0.003
   33  0.001  0.001  0.001  0.003
   34  0.001  0.001  0.001  0.003
   35  0.000  0.000  0.000  0.000
   36  0.108  0.070  0.127  0.305
   37  0.436  0.023  0.000  0.459
tot    0.554  0.097  0.137  0.788
 
band     2 # energy   -6.77551457 # occ.  2.00000000
 
ion      s      p      d    tot
    1  0.006  0.001  0.000  0.007
    2  0.006  0.001  0.000  0.007
    3  0.006  0.001  0.000  0.007
    4  0.006  0.001  0.000  0.007
    5  0.006  0.001  0.000  0.007
    6  0.006  0.001  0.000  0.007
    7  0.006  0.001  0.000  0.007
    8  0.006  0.001  0.000  0.007
    9  0.006  0.001  0.000  0.007
   10  0.024  0.000  0.000  0.024
   11  0.024  0.000  0.000  0.025
   12  0.024  0.000  0.000  0.024
   13  0.024  0.000  0.000  0.025
   14  0.024  0.000  0.000  0.025
   15  0.024  0.000  0.000  0.024
   16  0.024  0.000  0.000  0.024
   17  0.024  0.000  0.000  0.024
   18  0.024  0.000  0.000  0.024
   19  0.022  0.000  0.001  0.023
   20  0.024  0.000  0.000  0.025
   21  0.024  0.000  0.000  0.025
   22  0.023  0.000  0.000  0.024
   23  0.024  0.000  0.000  0.025
   24  0.023  0.000  0.000  0.024
   25  0.022  0.000  0.001  0.023
   26  0.022  0.000  0.001  0.023
   27  0.023  0.000  0.000  0.024
   28  0.005  0.001  0.000  0.005
   29  0.004  0.001  0.000  0.005
   30  0.004  0.001  0.000  0.005
   31  0.004  0.001  0.000  0.005
   32  0.004  0.001  0.000  0.005
   33  0.004  0.001  0.000  0.005
   34  0.004  0.001  0.000  0.005
   35  0.005  0.001  0.000  0.005
   36  0.002  0.003  0.001  0.006
   37  0.004  0.000  0.000  0.004
tot    0.521  0.016  0.010  0.546
 
band     3 # energy   -5.90768857 # occ.  2.00000000
 
ion      s      p      d    tot
    1  0.007  0.000  0.000  0.008
    2  0.007  0.000  0.000  0.008
    3  0.007  0.000  0.000  0.008
    4  0.007  0.000  0.000  0.008
    5  0.007  0.000  0.000  0.008
    6  0.007  0.000  0.000  0.008
    7  0.007  0.000  0.000  0.008
    8  0.007  0.000  0.000  0.008
    9  0.007  0.000  0.000  0.008
   10  0.011  0.001  0.016  0.028
   11  0.010  0.001  0.017  0.028
   12  0.011  0.001  0.016  0.028
   13  0.010  0.001  0.017  0.028
   14  0.010  0.001  0.017  0.028
   15  0.010  0.001  0.015  0.026
   16  0.011  0.001  0.016  0.028
   17  0.010  0.001  0.015  0.026
   18  0.010  0.001  0.015  0.026
   19  0.012  0.001  0.020  0.033
   20  0.014  0.001  0.024  0.038
   21  0.014  0.001  0.024  0.038
   22  0.013  0.001  0.019  0.033
   23  0.014  0.001  0.024  0.038
   24  0.013  0.001  0.019  0.033
   25  0.012  0.001  0.020  0.033
   26  0.012  0.001  0.020  0.033
   27  0.013  0.001  0.019  0.033
   28  0.005  0.000  0.000  0.006
   29  0.004  0.000  0.000  0.005
   30  0.004  0.000  0.000  0.005
   31  0.004  0.000  0.000  0.005
   32  0.004  0.000  0.000  0.005
   33  0.004  0.000  0.000  0.005
   34  0.004  0.000  0.000  0.005
   35  0.005  0.000  0.000  0.005
   36  0.002  0.002  0.000  0.004
   37  0.002  0.000  0.000  0.002
tot    0.311  0.024  0.340  0.676
 
band     4 # energy   -5.61288883 # occ.  2.00000000
 
ion      s      p      d    tot
    1  0.019  0.000  0.027  0.046
    2  0.018  0.000  0.028  0.046
    3  0.018  0.000  0.028  0.046
    4  0.018  0.000  0.028  0.046
    5  0.017  0.000  0.030  0.047
    6  0.018  0.000  0.028  0.046
    7  0.018  0.000  0.028  0.046
    8  0.018  0.000  0.028  0.046
    9  0.017  0.000  0.027  0.044
   10  0.000  0.001  0.021  0.022
   11  0.001  0.001  0.022  0.024
   12  0.000  0.001  0.021  0.022
   13  0.001  0.001  0.022  0.024
   14  0.001  0.001  0.022  0.024
   15  0.001  0.001  0.020  0.022
   16  0.000  0.001  0.021  0.022
   17  0.001  0.001  0.020  0.022
   18  0.001  0.001  0.020  0.022
   19  0.000  0.000  0.004  0.005
   20  0.000  0.000  0.006  0.007
   21  0.000  0.000  0.006  0.007
   22  0.000  0.000  0.008  0.009
   23  0.000  0.000  0.006  0.007
   24  0.000  0.000  0.008  0.009
   25  0.000  0.000  0.004  0.005
   26  0.000  0.000  0.004  0.005
   27  0.000  0.000  0.008  0.009
   28  0.005  0.000  0.004  0.010
   29  0.004  0.000  0.005  0.010
   30  0.004  0.000  0.005  0.010
   31  0.004  0.000  0.005  0.010
   32  0.004  0.000  0.005  0.010
   33  0.004  0.000  0.005  0.010
   34  0.004  0.000  0.005  0.010
   35  0.006  0.000  0.005  0.011
   36  0.001  0.000  0.003  0.004
   37  0.001  0.000  0.000  0.001
tot    0.205  0.008  0.541  0.754
 
band     5 # energy   -5.54347492 # occ.  2.00000000
 
ion      s      p      d    tot
    1  0.003  0.001  0.002  0.005
    2  0.000  0.000  0.004  0.004
    3  0.000  0.000  0.004  0.004
    4  0.000  0.000  0.004  0.004
    5  0.001  0.000  0.000  0.001
    6  0.000  0.000  0.004  0.004
    7  0.000  0.000  0.004  0.004
    8  0.000  0.000  0.004  0.004
    9  0.001  0.000  0.001  0.002
   10  0.003  0.000  0.028  0.032
   11  0.001  0.001  0.020  0.022
   12  0.003  0.000  0.028  0.032
   13  0.001  0.001  0.020  0.022
   14  0.001  0.001  0.020  0.022
   15  0.006  0.001  0.012  0.020
   16  0.003  0.000  0.028  0.032
   17  0.006  0.001  0.012  0.020
   18  0.006  0.001  0.012  0.020
   19  0.001  0.001  0.036  0.038
   20  0.009  0.000  0.095  0.104
   21  0.009  0.000  0.095  0.104
   22  0.015  0.001  0.011  0.027
   23  0.009  0.000  0.095  0.104
   24  0.015  0.001  0.011  0.027
   25  0.001  0.001  0.036  0.038
   26  0.001  0.001  0.036  0.038
   27  0.015  0.001  0.011  0.027
   28  0.000  0.000  0.001  0.001
   29  0.000  0.000  0.005  0.006
   30  0.000  0.000  0.005  0.006
   31  0.000  0.000  0.005  0.006
   32  0.000  0.000  0.005  0.006
   33  0.000  0.000  0.005  0.006
   34  0.000  0.000  0.005  0.006
   35  0.004  0.001  0.003  0.007
   36  0.002  0.003  0.002  0.008
   37  0.002  0.000  0.000  0.002
tot    0.118  0.018  0.674  0.810
 
band     6 # energy   -5.51476605 # occ.  2.00000000
 
ion      s      p      d    tot
    1  0.000  0.000  0.008  0.008
    2  0.001  0.000  0.003  0.004
    3  0.001  0.000  0.003  0.005
    4  0.001  0.000  0.003  0.004
    5  0.000  0.000  0.006  0.006
    6  0.000  0.000  0.002  0.003
    7  0.001  0.000  0.003  0.005
    8  0.000  0.000  0.002  0.003
    9  0.000  0.000  0.001  0.001
   10  0.000  0.000  0.033  0.033
   11  0.006  0.001  0.027  0.034
   12  0.011  0.001  0.014  0.026
   13  0.006  0.001  0.027  0.034
   14  0.000  0.001  0.015  0.016
   15  0.001  0.000  0.017  0.018
   16  0.011  0.001  0.014  0.026
   17  0.001  0.000  0.017  0.018
   18  0.000  0.000  0.029  0.029
   19  0.011  0.001  0.032  0.044
   20  0.000  0.000  0.126  0.126
   21  0.022  0.001  0.038  0.060
   22  0.002  0.000  0.036  0.038
   23  0.023  0.001  0.036  0.059
   24  0.000  0.001  0.075  0.075
   25  0.000  0.002  0.008  0.009
   26  0.011  0.001  0.032  0.043
   27  0.002  0.000  0.036  0.038
   28  0.000  0.000  0.002  0.003
   29  0.000  0.000  0.005  0.006
   30  0.000  0.000  0.002  0.003
   31  0.000  0.000  0.006  0.006
   32  0.002  0.001  0.007  0.009
   33  0.000  0.000  0.002  0.003
   34  0.002  0.001  0.007  0.009
   35  0.000  0.000  0.002  0.002
   36  0.000  0.001  0.002  0.003
   37  0.000  0.000  0.000  0.000
tot    0.117  0.016  0.677  0.810
 
band     7 # energy   -5.51473387 # occ.  2.00000000
 
ion      s      p      d    tot
    1  0.000  0.000  0.008  0.008
    2  0.001  0.000  0.003  0.004
    3  0.000  0.000  0.003  0.003
    4  0.001  0.000  0.003  0.004
    5  0.000  0.000  0.006  0.006
    6  0.002  0.000  0.003  0.005
    7  0.000  0.000  0.003  0.003
    8  0.002  0.000  0.003  0.005
    9  0.000  0.000  0.001  0.001
   10  0.015  0.001  0.008  0.024
   11  0.002  0.001  0.019  0.022
   12  0.004  0.000  0.026  0.031
   13  0.002  0.001  0.019  0.022
   14  0.008  0.000  0.031  0.040
   15  0.000  0.000  0.025  0.025
   16  0.004  0.000  0.027  0.031
   17  0.000  0.000  0.025  0.025
   18  0.001  0.000  0.013  0.015
   19  0.003  0.001  0.016  0.020
   20  0.030  0.001  0.008  0.038
   21  0.008  0.000  0.095  0.103
   22  0.001  0.001  0.062  0.063
   23  0.007  0.000  0.096  0.104
   24  0.002  0.000  0.022  0.025
   25  0.015  0.000  0.040  0.054
   26  0.004  0.001  0.016  0.021
   27  0.001  0.001  0.063  0.064
   28  0.000  0.000  0.002  0.003
   29  0.001  0.001  0.004  0.006
   30  0.001  0.001  0.007  0.009
   31  0.001  0.001  0.004  0.006
   32  0.000  0.000  0.003  0.003
   33  0.001  0.001  0.007  0.009
   34  0.000  0.000  0.003  0.003
   35  0.000  0.000  0.002  0.002
   36  0.000  0.001  0.002  0.003
   37  0.000  0.000  0.000  0.000
tot    0.117  0.016  0.677  0.810
 
band     8 # energy   -5.51302693 # occ.  2.00000000
 
ion      s      p      d    tot
    1  0.000  0.000  0.000  0.001
    2  0.000  0.000  0.006  0.006
    3  0.000  0.000  0.005  0.006
    4  0.000  0.000  0.006  0.006
    5  0.005  0.001  0.002  0.008
    6  0.000  0.000  0.005  0.006
    7  0.000  0.000  0.005  0.006
    8  0.000  0.000  0.005  0.006
    9  0.002  0.000  0.003  0.005
   10  0.006  0.001  0.006  0.014
   11  0.011  0.000  0.031  0.043
   12  0.006  0.001  0.006  0.013
   13  0.011  0.000  0.031  0.043
   14  0.011  0.000  0.031  0.042
   15  0.001  0.000  0.039  0.040
   16  0.006  0.001  0.006  0.013
   17  0.001  0.000  0.039  0.040
   18  0.001  0.000  0.040  0.040
   19  0.015  0.001  0.034  0.050
   20  0.006  0.001  0.012  0.020
   21  0.006  0.001  0.012  0.020
   22  0.001  0.000  0.068  0.069
   23  0.006  0.001  0.012  0.020
   24  0.001  0.000  0.069  0.070
   25  0.015  0.001  0.034  0.050
   26  0.015  0.001  0.034  0.050
   27  0.001  0.000  0.068  0.069
   28  0.005  0.001  0.006  0.012
   29  0.000  0.000  0.004  0.004
   30  0.000  0.000  0.004  0.004
   31  0.000  0.000  0.004  0.004
   32  0.000  0.000  0.004  0.004
   33  0.000  0.000  0.004  0.004
   34  0.000  0.000  0.004  0.004
   35  0.001  0.000  0.007  0.008
   36  0.001  0.000  0.000  0.001
   37  0.000  0.000  0.000  0.000
tot    0.134  0.017  0.648  0.799
 
band     9 # energy   -5.50905751 # occ.  2.00000000
 
ion      s      p      d    tot
    1  0.000  0.000  0.000  0.000
    2  0.000  0.000  0.004  0.004
    3  0.002  0.001  0.005  0.008
    4  0.000  0.000  0.004  0.004
    5  0.000  0.000  0.007  0.007
    6  0.000  0.000  0.003  0.003
    7  0.002  0.001  0.005  0.008
    8  0.000  0.000  0.003  0.003
    9  0.000  0.000  0.007  0.007
   10  0.000  0.000  0.030  0.030
   11  0.004  0.000  0.071  0.076
   12  0.000  0.001  0.032  0.033
   13  0.005  0.000  0.070  0.075
   14  0.019  0.001  0.004  0.024
   15  0.005  0.001  0.027  0.033
   16  0.000  0.001  0.032  0.033
   17  0.006  0.001  0.027  0.033
   18  0.022  0.001  0.027  0.050
   19  0.002  0.000  0.051  0.054
   20  0.002  0.000  0.034  0.037
   21  0.001  0.001  0.025  0.027
   22  0.006  0.001  0.033  0.040
   23  0.001  0.001  0.025  0.026
   24  0.022  0.001  0.017  0.040
   25  0.010  0.001  0.007  0.018
   26  0.002  0.000  0.050  0.053
   27  0.005  0.001  0.034  0.040
   28  0.000  0.000  0.004  0.004
   29  0.001  0.000  0.004  0.005
   30  0.000  0.000  0.002  0.002
   31  0.001  0.000  0.004  0.005
   32  0.001  0.000  0.004  0.005
   33  0.000  0.000  0.002  0.002
   34  0.001  0.000  0.004  0.005
   35  0.000  0.000  0.007  0.008
   36  0.000  0.000  0.000  0.000
   37  0.000  0.000  0.000  0.000
tot    0.124  0.016  0.663  0.803
 
band    10 # energy   -5.50905034 # occ.  2.00000000
 
ion      s      p      d    tot
    1  0.000  0.000  0.000  0.000
    2  0.001  0.001  0.004  0.006
    3  0.000  0.000  0.002  0.003
    4  0.001  0.001  0.004  0.006
    5  0.000  0.000  0.007  0.007
    6  0.001  0.000  0.005  0.007
    7  0.000  0.000  0.002  0.003
    8  0.001  0.000  0.005  0.007
    9  0.000  0.000  0.007  0.007
   10  0.000  0.001  0.033  0.034
   11  0.014  0.001  0.025  0.040
   12  0.000  0.000  0.030  0.031
   13  0.014  0.001  0.027  0.042
   14  0.000  0.000  0.093  0.093
   15  0.017  0.001  0.027  0.045
   16  0.000  0.000  0.030  0.031
   17  0.017  0.001  0.027  0.044
   18  0.000  0.001  0.026  0.027
   19  0.008  0.001  0.021  0.029
   20  0.000  0.001  0.022  0.023
   21  0.002  0.000  0.031  0.033
   22  0.017  0.001  0.023  0.040
   23  0.002  0.000  0.031  0.034
   24  0.000  0.001  0.039  0.040
   25  0.000  0.000  0.065  0.065
   26  0.007  0.001  0.022  0.030
   27  0.017  0.001  0.022  0.040
   28  0.000  0.000  0.004  0.004
   29  0.001  0.000  0.003  0.003
   30  0.002  0.000  0.004  0.006
   31  0.001  0.000  0.002  0.003
   32  0.000  0.000  0.002  0.003
   33  0.002  0.000  0.004  0.006
   34  0.000  0.000  0.003  0.003
   35  0.000  0.000  0.007  0.008
   36  0.000  0.000  0.000  0.000
   37  0.000  0.000  0.000  0.000
tot    0.124  0.016  0.662  0.803
 
band    11 # energy   -5.49075680 # occ.  2.00000000
 
ion      s      p      d    tot
    1  0.001  0.001  0.015  0.017
    2  0.000  0.000  0.009  0.009
    3  0.001  0.000  0.009  0.009
    4  0.000  0.000  0.009  0.009
    5  0.000  0.000  0.003  0.003
    6  0.000  0.000  0.009  0.009
    7  0.001  0.000  0.009  0.009
    8  0.000  0.000  0.009  0.009
    9  0.008  0.001  0.002  0.010
   10  0.009  0.000  0.033  0.042
   11  0.000  0.000  0.071  0.071
   12  0.009  0.000  0.033  0.042
   13  0.000  0.000  0.071  0.071
   14  0.000  0.000  0.071  0.071
   15  0.003  0.000  0.016  0.019
   16  0.009  0.000  0.033  0.042
   17  0.003  0.000  0.016  0.019
   18  0.003  0.000  0.016  0.020
   19  0.001  0.000  0.008  0.010
   20  0.002  0.000  0.034  0.037
   21  0.002  0.000  0.034  0.037
   22  0.000  0.000  0.038  0.038
   23  0.002  0.000  0.034  0.037
   24  0.000  0.000  0.038  0.038
   25  0.001  0.000  0.008  0.010
   26  0.001  0.000  0.008  0.010
   27  0.000  0.000  0.038  0.038
   28  0.006  0.001  0.000  0.006
   29  0.001  0.000  0.011  0.012
   30  0.001  0.000  0.011  0.012
   31  0.001  0.000  0.011  0.012
   32  0.001  0.000  0.011  0.012
   33  0.001  0.000  0.011  0.012
   34  0.001  0.000  0.011  0.012
   35  0.002  0.000  0.010  0.012
   36  0.003  0.001  0.000  0.004
   37  0.000  0.000  0.000  0.000
tot    0.074  0.009  0.750  0.833
 
band    12 # energy   -5.46951735 # occ.  2.00000000
 
ion      s      p      d    tot
    1  0.002  0.000  0.005  0.008
    2  0.000  0.000  0.009  0.009
    3  0.000  0.000  0.009  0.009
    4  0.000  0.000  0.009  0.009
    5  0.003  0.001  0.000  0.005
    6  0.000  0.000  0.009  0.009
    7  0.000  0.000  0.009  0.009
    8  0.000  0.000  0.009  0.009
    9  0.000  0.000  0.011  0.011
   10  0.000  0.000  0.067  0.068
   11  0.006  0.000  0.003  0.009
   12  0.000  0.000  0.067  0.067
   13  0.006  0.000  0.003  0.009
   14  0.006  0.000  0.003  0.010
   15  0.006  0.000  0.062  0.068
   16  0.000  0.000  0.067  0.067
   17  0.006  0.000  0.062  0.067
   18  0.005  0.000  0.061  0.067
   19  0.000  0.000  0.044  0.044
   20  0.001  0.000  0.022  0.023
   21  0.001  0.000  0.022  0.023
   22  0.001  0.000  0.026  0.027
   23  0.001  0.000  0.022  0.023
   24  0.001  0.000  0.026  0.027
   25  0.000  0.000  0.044  0.044
   26  0.000  0.000  0.044  0.044
   27  0.001  0.000  0.026  0.027
   28  0.001  0.000  0.005  0.006
   29  0.000  0.000  0.007  0.007
   30  0.000  0.000  0.006  0.007
   31  0.000  0.000  0.007  0.007
   32  0.000  0.000  0.007  0.007
   33  0.000  0.000  0.006  0.007
   34  0.000  0.000  0.007  0.007
   35  0.003  0.000  0.000  0.004
   36  0.000  0.001  0.001  0.002
   37  0.000  0.000  0.000  0.000
tot    0.050  0.008  0.789  0.847
 
band    13 # energy   -5.46823162 # occ.  2.00000000
 
ion      s      p      d    tot
    1  0.000  0.000  0.015  0.016
    2  0.001  0.000  0.009  0.010
    3  0.002  0.001  0.005  0.008
    4  0.000  0.000  0.010  0.011
    5  0.000  0.000  0.004  0.004
    6  0.001  0.000  0.009  0.009
    7  0.002  0.000  0.005  0.007
    8  0.001  0.000  0.008  0.009
    9  0.000  0.000  0.007  0.008
   10  0.012  0.000  0.035  0.047
   11  0.000  0.000  0.020  0.020
   12  0.004  0.000  0.052  0.056
   13  0.000  0.000  0.024  0.024
   14  0.000  0.000  0.044  0.044
   15  0.002  0.000  0.094  0.096
   16  0.002  0.000  0.055  0.058
   17  0.003  0.000  0.080  0.083
   18  0.011  0.000  0.007  0.018
   19  0.000  0.000  0.045  0.045
   20  0.002  0.000  0.011  0.013
   21  0.001  0.000  0.033  0.033
   22  0.000  0.000  0.018  0.018
   23  0.000  0.000  0.037  0.037
   24  0.000  0.000  0.034  0.034
   25  0.002  0.000  0.023  0.025
   26  0.001  0.000  0.041  0.042
   27  0.000  0.000  0.014  0.014
   28  0.000  0.000  0.012  0.012
   29  0.002  0.000  0.003  0.005
   30  0.000  0.000  0.005  0.005
   31  0.002  0.000  0.003  0.006
   32  0.001  0.000  0.005  0.006
   33  0.000  0.000  0.005  0.005
   34  0.001  0.000  0.005  0.006
   35  0.000  0.000  0.006  0.006
   36  0.000  0.000  0.000  0.001
   37  0.000  0.000  0.000  0.000
tot    0.053  0.008  0.783  0.844
 
band    14 # energy   -5.46822807 # occ.  2.00000000
 
ion      s      p      d    tot
    1  0.000  0.000  0.015  0.016
    2  0.002  0.000  0.006  0.008
    3  0.000  0.000  0.010  0.010
    4  0.002  0.000  0.005  0.007
    5  0.000  0.000  0.004  0.004
    6  0.002  0.001  0.006  0.009
    7  0.000  0.000  0.010  0.011
    8  0.001  0.001  0.007  0.009
    9  0.000  0.000  0.007  0.008
   10  0.000  0.000  0.060  0.060
   11  0.000  0.000  0.039  0.039
   12  0.009  0.000  0.043  0.052
   13  0.000  0.000  0.035  0.035
   14  0.000  0.001  0.015  0.015
   15  0.009  0.000  0.026  0.035
   16  0.010  0.000  0.040  0.050
   17  0.007  0.000  0.041  0.048
   18  0.000  0.000  0.114  0.114
   19  0.001  0.000  0.028  0.030
   20  0.000  0.000  0.043  0.043
   21  0.001  0.000  0.021  0.022
   22  0.000  0.000  0.026  0.027
   23  0.001  0.000  0.017  0.018
   24  0.000  0.000  0.010  0.010
   25  0.000  0.000  0.049  0.049
   26  0.001  0.000  0.032  0.033
   27  0.000  0.000  0.030  0.030
   28  0.000  0.000  0.012  0.012
   29  0.000  0.000  0.006  0.006
   30  0.002  0.000  0.004  0.006
   31  0.000  0.000  0.005  0.006
   32  0.001  0.000  0.004  0.005
   33  0.002  0.000  0.004  0.006
   34  0.001  0.000  0.004  0.005
   35  0.000  0.000  0.006  0.006
   36  0.000  0.000  0.000  0.001
   37  0.000  0.000  0.000  0.000
tot    0.053  0.008  0.783  0.844
 
band    15 # energy   -5.45521237 # occ.  2.00000000
 
ion      s      p      d    tot
    1  0.000  0.000  0.006  0.006
    2  0.004  0.001  0.006  0.010
    3  0.000  0.000  0.010  0.011
    4  0.004  0.001  0.006  0.010
    5  0.000  0.000  0.013  0.013
    6  0.002  0.001  0.008  0.011
    7  0.000  0.000  0.010  0.011
    8  0.002  0.001  0.008  0.011
    9  0.000  0.000  0.016  0.016
   10  0.008  0.000  0.014  0.023
   11  0.003  0.000  0.053  0.056
   12  0.002  0.000  0.047  0.050
   13  0.003  0.000  0.053  0.056
   14  0.010  0.000  0.015  0.026
   15  0.000  0.000  0.023  0.023
   16  0.002  0.000  0.048  0.050
   17  0.000  0.000  0.023  0.023
   18  0.000  0.000  0.046  0.046
   19  0.001  0.000  0.049  0.050
   20  0.000  0.000  0.043  0.044
   21  0.000  0.000  0.024  0.025
   22  0.002  0.000  0.051  0.053
   23  0.000  0.000  0.024  0.024
   24  0.010  0.000  0.016  0.026
   25  0.006  0.000  0.010  0.016
   26  0.002  0.000  0.048  0.049
   27  0.002  0.000  0.051  0.054
   28  0.000  0.000  0.003  0.003
   29  0.000  0.000  0.006  0.007
   30  0.001  0.000  0.001  0.003
   31  0.000  0.000  0.006  0.007
   32  0.001  0.001  0.006  0.008
   33  0.001  0.000  0.001  0.003
   34  0.001  0.001  0.006  0.008
   35  0.000  0.000  0.007  0.007
   36  0.000  0.000  0.001  0.001
   37  0.000  0.000  0.000  0.000
tot    0.069  0.008  0.762  0.839
 
band    16 # energy   -5.45518635 # occ.  2.00000000
 
ion      s      p      d    tot
    1  0.000  0.000  0.006  0.006
    2  0.000  0.000  0.010  0.011
    3  0.003  0.001  0.006  0.010
    4  0.000  0.000  0.010  0.011
    5  0.000  0.000  0.013  0.013
    6  0.002  0.000  0.008  0.010
    7  0.003  0.001  0.006  0.010
    8  0.002  0.000  0.008  0.010
    9  0.000  0.000  0.016  0.016
   10  0.000  0.000  0.058  0.058
   11  0.008  0.000  0.027  0.035
   12  0.006  0.000  0.026  0.032
   13  0.008  0.000  0.028  0.036
   14  0.000  0.000  0.066  0.066
   15  0.000  0.000  0.038  0.039
   16  0.006  0.000  0.025  0.031
   17  0.000  0.000  0.038  0.038
   18  0.000  0.000  0.015  0.015
   19  0.005  0.000  0.023  0.027
   20  0.000  0.000  0.018  0.018
   21  0.000  0.000  0.037  0.037
   22  0.007  0.000  0.028  0.036
   23  0.000  0.000  0.037  0.038
   24  0.000  0.000  0.063  0.063
   25  0.000  0.000  0.061  0.061
   26  0.005  0.000  0.023  0.028
   27  0.007  0.000  0.028  0.035
   28  0.000  0.000  0.003  0.003
   29  0.002  0.001  0.003  0.005
   30  0.000  0.000  0.008  0.009
   31  0.002  0.001  0.003  0.005
   32  0.001  0.000  0.003  0.004
   33  0.000  0.000  0.008  0.009
   34  0.001  0.000  0.003  0.004
   35  0.000  0.000  0.007  0.007
   36  0.000  0.000  0.001  0.001
   37  0.000  0.000  0.000  0.000
tot    0.068  0.008  0.763  0.839
 
band    17 # energy   -5.39737488 # occ.  2.00000000
 
ion      s      p      d    tot
    1  0.004  0.000  0.002  0.007
    2  0.002  0.000  0.008  0.010
    3  0.002  0.000  0.008  0.010
    4  0.002  0.000  0.008  0.010
    5  0.002  0.000  0.013  0.015
    6  0.002  0.000  0.008  0.010
    7  0.002  0.000  0.008  0.010
    8  0.002  0.000  0.008  0.010
    9  0.000  0.000  0.008  0.009
   10  0.000  0.000  0.008  0.009
   11  0.002  0.000  0.013  0.015
   12  0.000  0.000  0.008  0.009
   13  0.002  0.000  0.013  0.015
   14  0.002  0.000  0.013  0.015
   15  0.003  0.000  0.009  0.012
   16  0.000  0.000  0.008  0.009
   17  0.003  0.000  0.009  0.012
   18  0.003  0.000  0.009  0.012
   19  0.001  0.001  0.012  0.013
   20  0.000  0.001  0.023  0.024
   21  0.000  0.001  0.023  0.024
   22  0.000  0.001  0.019  0.021
   23  0.000  0.001  0.023  0.024
   24  0.000  0.001  0.019  0.021
   25  0.001  0.001  0.012  0.013
   26  0.001  0.001  0.012  0.013
   27  0.000  0.001  0.019  0.021
   28  0.015  0.000  0.036  0.051
   29  0.015  0.000  0.032  0.047
   30  0.015  0.000  0.032  0.047
   31  0.015  0.000  0.032  0.047
   32  0.015  0.000  0.032  0.047
   33  0.015  0.000  0.032  0.047
   34  0.015  0.000  0.032  0.047
   35  0.019  0.000  0.034  0.053
   36  0.005  0.001  0.013  0.019
   37  0.003  0.000  0.000  0.003
tot    0.167  0.010  0.606  0.783
 
band    18 # energy   -5.32238241 # occ.  2.00000000
 
ion      s      p      d    tot
    1  0.001  0.000  0.000  0.001
    2  0.000  0.000  0.006  0.007
    3  0.000  0.000  0.006  0.007
    4  0.000  0.000  0.006  0.007
    5  0.000  0.000  0.014  0.014
    6  0.000  0.000  0.006  0.007
    7  0.000  0.000  0.006  0.007
    8  0.000  0.000  0.006  0.007
    9  0.001  0.001  0.008  0.010
   10  0.000  0.000  0.014  0.014
   11  0.000  0.000  0.062  0.063
   12  0.000  0.000  0.014  0.014
   13  0.000  0.000  0.062  0.063
   14  0.000  0.000  0.062  0.063
   15  0.000  0.001  0.046  0.047
   16  0.000  0.000  0.014  0.014
   17  0.000  0.001  0.046  0.047
   18  0.000  0.001  0.046  0.047
   19  0.000  0.000  0.020  0.021
   20  0.001  0.000  0.069  0.070
   21  0.001  0.000  0.068  0.069
   22  0.002  0.000  0.025  0.028
   23  0.001  0.000  0.068  0.069
   24  0.002  0.000  0.025  0.028
   25  0.000  0.000  0.020  0.021
   26  0.000  0.000  0.020  0.021
   27  0.002  0.000  0.025  0.028
   28  0.005  0.001  0.000  0.006
   29  0.000  0.000  0.010  0.011
   30  0.000  0.000  0.010  0.011
   31  0.000  0.000  0.010  0.011
   32  0.000  0.000  0.010  0.011
   33  0.000  0.000  0.010  0.011
   34  0.000  0.000  0.010  0.011
   35  0.000  0.000  0.001  0.001
   36  0.001  0.002  0.002  0.005
   37  0.001  0.000  0.000  0.001
tot    0.022  0.014  0.833  0.869
 
band    19 # energy   -5.30370039 # occ.  2.00000000
 
ion      s      p      d    tot
    1  0.000  0.000  0.000  0.000
    2  0.000  0.000  0.007  0.008
    3  0.001  0.001  0.005  0.007
    4  0.000  0.000  0.007  0.008
    5  0.000  0.001  0.013  0.014
    6  0.001  0.000  0.009  0.010
    7  0.001  0.001  0.005  0.007
    8  0.001  0.000  0.009  0.010
    9  0.000  0.000  0.012  0.013
   10  0.000  0.000  0.027  0.028
   11  0.001  0.000  0.051  0.053
   12  0.000  0.001  0.024  0.025
   13  0.001  0.000  0.053  0.054
   14  0.000  0.000  0.097  0.097
   15  0.002  0.001  0.037  0.039
   16  0.000  0.001  0.024  0.025
   17  0.002  0.001  0.036  0.039
   18  0.000  0.000  0.017  0.017
   19  0.002  0.001  0.026  0.029
   20  0.000  0.000  0.082  0.082
   21  0.003  0.000  0.054  0.057
   22  0.000  0.001  0.026  0.027
   23  0.003  0.000  0.053  0.056
   24  0.000  0.000  0.042  0.043
   25  0.000  0.000  0.003  0.003
   26  0.002  0.001  0.025  0.028
   27  0.000  0.001  0.026  0.026
   28  0.000  0.000  0.008  0.008
   29  0.001  0.001  0.007  0.009
   30  0.002  0.001  0.004  0.007
   31  0.001  0.001  0.007  0.009
   32  0.000  0.000  0.007  0.007
   33  0.002  0.001  0.004  0.007
   34  0.000  0.000  0.007  0.007
   35  0.000  0.000  0.002  0.002
   36  0.000  0.001  0.003  0.005
   37  0.000  0.000  0.000  0.000
tot    0.026  0.016  0.821  0.863
 
band    20 # energy   -5.30367736 # occ.  2.00000000
 
ion      s      p      d    tot
    1  0.000  0.000  0.000  0.000
    2  0.001  0.001  0.007  0.009
    3  0.000  0.000  0.009  0.010
    4  0.001  0.001  0.007  0.009
    5  0.000  0.001  0.013  0.014
    6  0.001  0.000  0.005  0.006
    7  0.000  0.000  0.009  0.009
    8  0.001  0.000  0.005  0.006
    9  0.000  0.000  0.013  0.013
   10  0.000  0.001  0.024  0.025
   11  0.000  0.000  0.082  0.083
   12  0.000  0.000  0.026  0.026
   13  0.000  0.000  0.081  0.082
   14  0.001  0.000  0.037  0.038
   15  0.001  0.000  0.023  0.024
   16  0.000  0.000  0.026  0.026
   17  0.001  0.000  0.024  0.025
   18  0.002  0.001  0.043  0.046
   19  0.001  0.000  0.010  0.011
   20  0.004  0.000  0.044  0.048
   21  0.001  0.000  0.072  0.073
   22  0.000  0.000  0.037  0.038
   23  0.001  0.000  0.072  0.073
   24  0.000  0.001  0.020  0.021
   25  0.003  0.001  0.033  0.036
   26  0.001  0.000  0.011  0.012
   27  0.000  0.000  0.038  0.038
   28  0.000  0.000  0.008  0.008
   29  0.001  0.000  0.005  0.006
   30  0.000  0.000  0.008  0.008
   31  0.001  0.000  0.005  0.006
   32  0.002  0.001  0.005  0.008
   33  0.000  0.000  0.008  0.009
   34  0.002  0.001  0.005  0.008
   35  0.000  0.000  0.002  0.002
   36  0.000  0.001  0.003  0.005
   37  0.000  0.000  0.000  0.000
tot    0.026  0.016  0.821  0.863
 
band    21 # energy   -5.29957040 # occ.  2.00000000
 
ion      s      p      d    tot
    1  0.000  0.000  0.007  0.007
    2  0.000  0.000  0.011  0.011
    3  0.000  0.000  0.011  0.011
    4  0.000  0.000  0.011  0.011
    5  0.004  0.001  0.002  0.006
    6  0.000  0.000  0.011  0.011
    7  0.000  0.000  0.011  0.011
    8  0.000  0.000  0.011  0.011
    9  0.002  0.000  0.003  0.005
   10  0.002  0.001  0.050  0.053
   11  0.000  0.000  0.031  0.032
   12  0.002  0.001  0.051  0.054
   13  0.000  0.000  0.031  0.032
   14  0.000  0.000  0.032  0.032
   15  0.002  0.000  0.024  0.026
   16  0.002  0.001  0.051  0.054
   17  0.002  0.000  0.024  0.026
   18  0.002  0.000  0.024  0.026
   19  0.002  0.001  0.053  0.055
   20  0.001  0.000  0.018  0.019
   21  0.001  0.000  0.018  0.020
   22  0.000  0.001  0.043  0.044
   23  0.001  0.000  0.018  0.020
   24  0.000  0.001  0.044  0.045
   25  0.002  0.001  0.053  0.055
   26  0.002  0.001  0.053  0.055
   27  0.000  0.001  0.043  0.044
   28  0.000  0.000  0.012  0.012
   29  0.000  0.000  0.009  0.010
   30  0.000  0.000  0.009  0.010
   31  0.000  0.000  0.009  0.010
   32  0.000  0.000  0.010  0.010
   33  0.000  0.000  0.009  0.010
   34  0.000  0.000  0.010  0.010
   35  0.004  0.001  0.003  0.008
   36  0.002  0.000  0.000  0.003