PROCAR new format
# of k-points:   10         # of bands:  252         # of ions:   39

 k-point     1 :    0.00000000 0.00000000 0.00000000     weight = 0.01562500

band     1 # energy  -24.73661885 # occ.  2.00000000
 
ion      s      p      d    tot
    1  0.000  0.000  0.000  0.000
    2  0.000  0.000  0.000  0.000
    3  0.000  0.000  0.000  0.000
    4  0.000  0.000  0.000  0.000
    5  0.000  0.000  0.000  0.000
    6  0.000  0.000  0.000  0.000
    7  0.000  0.000  0.000  0.000
    8  0.000  0.000  0.000  0.000
    9  0.000  0.000  0.000  0.000
   10  0.000  0.000  0.000  0.000
   11  0.000  0.000  0.000  0.000
   12  0.000  0.000  0.000  0.000
   13  0.000  0.000  0.000  0.000
   14  0.000  0.000  0.000  0.000
   15  0.000  0.000  0.000  0.000
   16  0.000  0.000  0.000  0.000
   17  0.000  0.000  0.000  0.000
   18  0.000  0.000  0.000  0.000
   19  0.000  0.000  0.000  0.000
   20  0.000  0.000  0.000  0.000
   21  0.000  0.000  0.000  0.000
   22  0.000  0.000  0.000  0.000
   23  0.000  0.000  0.000  0.000
   24  0.000  0.000  0.000  0.000
   25  0.000  0.000  0.000  0.000
   26  0.000  0.000  0.000  0.000
   27  0.000  0.000  0.000  0.000
   28  0.000  0.000  0.000  0.000
   29  0.000  0.000  0.000  0.000
   30  0.000  0.000  0.000  0.000
   31  0.000  0.000  0.000  0.000
   32  0.000  0.000  0.000  0.000
   33  0.000  0.000  0.000  0.000
   34  0.000  0.000  0.000  0.000
   35  0.000  0.000  0.000  0.000
   36  0.000  0.000  0.000  0.001
   37  0.078  0.057  0.000  0.135
   38  0.725  0.007  0.000  0.732
   39  0.061  0.013  0.000  0.074
tot    0.863  0.078  0.000  0.941
 
band     2 # energy  -15.42541139 # occ.  2.00000000
 
ion      s      p      d    tot
    1  0.000  0.000  0.000  0.000
    2  0.000  0.000  0.000  0.000
    3  0.000  0.000  0.000  0.000
    4  0.000  0.000  0.000  0.000
    5  0.000  0.000  0.000  0.000
    6  0.000  0.000  0.000  0.000
    7  0.000  0.000  0.000  0.000
    8  0.000  0.000  0.000  0.000
    9  0.000  0.000  0.000  0.000
   10  0.000  0.000  0.000  0.000
   11  0.000  0.000  0.000  0.000
   12  0.000  0.000  0.000  0.000
   13  0.000  0.000  0.000  0.000
   14  0.000  0.000  0.000  0.000
   15  0.000  0.000  0.000  0.000
   16  0.000  0.000  0.000  0.000
   17  0.000  0.000  0.000  0.000
   18  0.000  0.000  0.000  0.000
   19  0.000  0.000  0.000  0.000
   20  0.000  0.000  0.000  0.000
   21  0.000  0.000  0.000  0.000
   22  0.000  0.000  0.000  0.000
   23  0.000  0.000  0.000  0.000
   24  0.000  0.000  0.000  0.000
   25  0.000  0.000  0.000  0.000
   26  0.000  0.000  0.000  0.000
   27  0.000  0.000  0.000  0.000
   28  0.000  0.000  0.000  0.000
   29  0.000  0.000  0.000  0.000
   30  0.000  0.000  0.000  0.000
   31  0.000  0.000  0.000  0.000
   32  0.000  0.000  0.000  0.000
   33  0.000  0.000  0.000  0.000
   34  0.000  0.000  0.000  0.000
   35  0.000  0.000  0.000  0.000
   36  0.003  0.003  0.005  0.011
   37  0.159  0.050  0.000  0.209
   38  0.018  0.522  0.000  0.540
   39  0.201  0.032  0.000  0.232
tot    0.381  0.607  0.005  0.992
 
band     3 # energy   -8.84163470 # occ.  2.00000000
 
ion      s      p      d    tot
    1  0.005  0.001  0.000  0.005
    2  0.005  0.001  0.000  0.005
    3  0.005  0.001  0.000  0.005
    4  0.005  0.001  0.000  0.005
    5  0.005  0.001  0.000  0.005
    6  0.005  0.001  0.000  0.005
    7  0.005  0.001  0.000  0.005
    8  0.005  0.001  0.000  0.005
    9  0.004  0.001  0.000  0.005
   10  0.018  0.000  0.000  0.018
   11  0.018  0.000  0.000  0.019
   12  0.018  0.000  0.000  0.018
   13  0.018  0.000  0.000  0.019
   14  0.018  0.000  0.000  0.019
   15  0.017  0.000  0.000  0.018
   16  0.018  0.000  0.000  0.018
   17  0.017  0.000  0.000  0.018
   18  0.017  0.000  0.000  0.018
   19  0.020  0.000  0.000  0.020
   20  0.026  0.000  0.000  0.026
   21  0.026  0.000  0.000  0.026
   22  0.020  0.000  0.000  0.020
   23  0.026  0.000  0.000  0.026
   24  0.020  0.000  0.000  0.020
   25  0.020  0.000  0.000  0.020
   26  0.020  0.000  0.000  0.020
   27  0.020  0.000  0.000  0.020
   28  0.006  0.001  0.000  0.007
   29  0.007  0.000  0.000  0.008
   30  0.007  0.000  0.000  0.008
   31  0.007  0.000  0.000  0.008
   32  0.007  0.000  0.000  0.008
   33  0.007  0.000  0.000  0.008
   34  0.007  0.000  0.000  0.008
   35  0.006  0.001  0.000  0.007
   36  0.058  0.006  0.053  0.117
   37  0.034  0.034  0.000  0.069
   38  0.002  0.010  0.000  0.013
   39  0.003  0.000  0.000  0.003
tot    0.551  0.062  0.054  0.668
 
band     4 # energy   -8.33532243 # occ.  2.00000000
 
ion      s      p      d    tot
    1  0.004  0.000  0.000  0.005
    2  0.004  0.000  0.000  0.005
    3  0.004  0.000  0.000  0.005
    4  0.004  0.000  0.000  0.005
    5  0.004  0.000  0.000  0.004
    6  0.004  0.000  0.000  0.005
    7  0.004  0.000  0.000  0.005
    8  0.004  0.000  0.000  0.005
    9  0.004  0.000  0.000  0.005
   10  0.010  0.000  0.000  0.010
   11  0.008  0.000  0.000  0.009
   12  0.010  0.000  0.000  0.010
   13  0.008  0.000  0.000  0.009
   14  0.008  0.000  0.000  0.009
   15  0.010  0.000  0.000  0.010
   16  0.010  0.000  0.000  0.010
   17  0.010  0.000  0.000  0.010
   18  0.010  0.000  0.000  0.010
   19  0.004  0.000  0.000  0.004
   20  0.000  0.002  0.002  0.004
   21  0.000  0.002  0.002  0.004
   22  0.003  0.000  0.000  0.004
   23  0.000  0.002  0.002  0.004
   24  0.003  0.000  0.000  0.004
   25  0.004  0.000  0.000  0.004
   26  0.004  0.000  0.000  0.004
   27  0.003  0.000  0.000  0.004
   28  0.000  0.000  0.000  0.000
   29  0.000  0.000  0.000  0.001
   30  0.000  0.000  0.000  0.001
   31  0.000  0.000  0.000  0.001
   32  0.000  0.000  0.000  0.001
   33  0.000  0.000  0.000  0.001
   34  0.000  0.000  0.000  0.001
   35  0.000  0.000  0.000  0.000
   36  0.095  0.062  0.247  0.404
   37  0.150  0.139  0.000  0.289
   38  0.010  0.038  0.000  0.047
   39  0.011  0.001  0.000  0.012
tot    0.409  0.253  0.254  0.916
 
band     5 # energy   -7.52754729 # occ.  2.00000000
 
ion      s      p      d    tot
    1  0.000  0.000  0.000  0.000
    2  0.000  0.000  0.000  0.000
    3  0.000  0.000  0.000  0.000
    4  0.000  0.000  0.000  0.000
    5  0.000  0.000  0.000  0.000
    6  0.000  0.000  0.000  0.000
    7  0.000  0.000  0.000  0.000
    8  0.000  0.000  0.000  0.000
    9  0.000  0.000  0.000  0.000
   10  0.000  0.000  0.000  0.000
   11  0.000  0.000  0.000  0.000
   12  0.000  0.000  0.000  0.000
   13  0.000  0.000  0.000  0.000
   14  0.000  0.000  0.000  0.000
   15  0.000  0.000  0.000  0.000
   16  0.000  0.000  0.000  0.000
   17  0.000  0.000  0.000  0.000
   18  0.000  0.000  0.000  0.000
   19  0.000  0.000  0.000  0.000
   20  0.000  0.000  0.000  0.000
   21  0.000  0.000  0.000  0.000
   22  0.000  0.000  0.000  0.000
   23  0.000  0.000  0.000  0.000
   24  0.000  0.000  0.000  0.000
   25  0.000  0.000  0.000  0.000
   26  0.000  0.000  0.000  0.000
   27  0.000  0.000  0.000  0.000
   28  0.000  0.000  0.000  0.000
   29  0.000  0.000  0.000  0.001
   30  0.000  0.000  0.000  0.000
   31  0.000  0.000  0.000  0.001
   32  0.000  0.000  0.000  0.001
   33  0.000  0.000  0.000  0.000
   34  0.000  0.000  0.000  0.001
   35  0.000  0.000  0.000  0.000
   36  0.000  0.003  0.026  0.029
   37  0.000  0.117  0.000  0.117
   38  0.000  0.529  0.000  0.529
   39  0.000  0.007  0.000  0.007
tot    0.001  0.658  0.028  0.686
 
band     6 # energy   -7.52740133 # occ.  2.00000000
 
ion      s      p      d    tot
    1  0.000  0.000  0.000  0.000
    2  0.000  0.000  0.000  0.000
    3  0.000  0.000  0.000  0.000
    4  0.000  0.000  0.000  0.000
    5  0.000  0.000  0.000  0.000
    6  0.000  0.000  0.000  0.000
    7  0.000  0.000  0.000  0.000
    8  0.000  0.000  0.000  0.000
    9  0.000  0.000  0.000  0.000
   10  0.000  0.000  0.000  0.000
   11  0.000  0.000  0.000  0.000
   12  0.000  0.000  0.000  0.000
   13  0.000  0.000  0.000  0.000
   14  0.000  0.000  0.000  0.000
   15  0.000  0.000  0.000  0.000
   16  0.000  0.000  0.000  0.000
   17  0.000  0.000  0.000  0.000
   18  0.000  0.000  0.000  0.000
   19  0.000  0.000  0.000  0.000
   20  0.000  0.000  0.000  0.000
   21  0.000  0.000  0.000  0.000
   22  0.000  0.000  0.000  0.000
   23  0.000  0.000  0.000  0.000
   24  0.000  0.000  0.000  0.000
   25  0.000  0.000  0.000  0.000
   26  0.000  0.000  0.000  0.000
   27  0.000  0.000  0.000  0.000
   28  0.000  0.000  0.000  0.000
   29  0.000  0.000  0.000  0.000
   30  0.000  0.000  0.000  0.001
   31  0.000  0.000  0.000  0.000
   32  0.000  0.000  0.000  0.000
   33  0.000  0.000  0.000  0.001
   34  0.000  0.000  0.000  0.000
   35  0.000  0.000  0.000  0.000
   36  0.000  0.003  0.026  0.029
   37  0.000  0.117  0.000  0.117
   38  0.000  0.529  0.000  0.529
   39  0.000  0.007  0.000  0.007
tot    0.001  0.658  0.028  0.686
 
band     7 # energy   -7.36836487 # occ.  2.00000000
 
ion      s      p      d    tot
    1  0.017  0.001  0.001  0.018
    2  0.017  0.001  0.001  0.018
    3  0.017  0.001  0.001  0.018
    4  0.017  0.001  0.001  0.018
    5  0.017  0.001  0.001  0.018
    6  0.017  0.001  0.001  0.018
    7  0.017  0.001  0.001  0.018
    8  0.017  0.001  0.001  0.018
    9  0.016  0.001  0.001  0.017
   10  0.007  0.002  0.000  0.010
   11  0.008  0.002  0.000  0.010
   12  0.007  0.002  0.000  0.010
   13  0.008  0.002  0.000  0.010
   14  0.008  0.002  0.000  0.010
   15  0.006  0.003  0.001  0.009
   16  0.007  0.002  0.000  0.010
   17  0.006  0.003  0.001  0.009
   18  0.006  0.003  0.001  0.009
   19  0.014  0.002  0.001  0.017
   20  0.007  0.002  0.001  0.010
   21  0.007  0.002  0.001  0.010
   22  0.014  0.002  0.001  0.016
   23  0.007  0.002  0.001  0.010
   24  0.014  0.002  0.001  0.016
   25  0.014  0.002  0.001  0.017
   26  0.014  0.002  0.001  0.017
   27  0.014  0.002  0.001  0.016
   28  0.021  0.001  0.000  0.022
   29  0.017  0.001  0.001  0.018
   30  0.017  0.001  0.001  0.018
   31  0.017  0.001  0.001  0.018
   32  0.017  0.001  0.001  0.018
   33  0.017  0.001  0.001  0.018
   34  0.017  0.001  0.001  0.018
   35  0.020  0.001  0.000  0.022
   36  0.001  0.012  0.047  0.060
   37  0.015  0.012  0.000  0.027
   38  0.001  0.002  0.000  0.003
   39  0.001  0.000  0.000  0.001
tot    0.479  0.078  0.067  0.624
 
band     8 # energy   -5.87500198 # occ.  2.00000000
 
ion      s      p      d    tot
    1  0.016  0.000  0.005  0.021
    2  0.014  0.000  0.006  0.020
    3  0.014  0.000  0.006  0.020
    4  0.014  0.000  0.006  0.020
    5  0.006  0.000  0.006  0.013
    6  0.014  0.000  0.006  0.020
    7  0.014  0.000  0.006  0.020
    8  0.014  0.000  0.006  0.020
    9  0.024  0.000  0.004  0.028
   10  0.003  0.003  0.003  0.009
   11  0.011  0.005  0.001  0.017
   12  0.003  0.003  0.003  0.009
   13  0.011  0.005  0.001  0.017
   14  0.011  0.005  0.001  0.017
   15  0.000  0.003  0.004  0.006
   16  0.003  0.003  0.003  0.009
   17  0.000  0.003  0.004  0.006
   18  0.000  0.003  0.004  0.006
   19  0.001  0.003  0.005  0.009
   20  0.018  0.004  0.003  0.025
   21  0.018  0.004  0.003  0.025
   22  0.001  0.004  0.004  0.008
   23  0.018  0.004  0.003  0.025
   24  0.001  0.004  0.004  0.008
   25  0.001  0.003  0.005  0.009
   26  0.001  0.003  0.005  0.009
   27  0.001  0.004  0.004  0.008
   28  0.020  0.000  0.005  0.025
   29  0.016  0.000  0.007  0.023
   30  0.016  0.000  0.007  0.023
   31  0.016  0.000  0.007  0.023
   32  0.016  0.000  0.007  0.023
   33  0.017  0.000  0.007  0.023
   34  0.016  0.000  0.007  0.023
   35  0.025  0.000  0.005  0.029
   36  0.006  0.003  0.023  0.033
   37  0.000  0.000  0.000  0.000
   38  0.000  0.000  0.000  0.000
   39  0.000  0.000  0.000  0.000
tot    0.384  0.071  0.179  0.633
 
band     9 # energy   -5.78967030 # occ.  2.00000000
 
ion      s      p      d    tot
    1  0.000  0.003  0.005  0.008
    2  0.009  0.002  0.002  0.014
    3  0.002  0.001  0.002  0.005
    4  0.009  0.002  0.002  0.014
    5  0.000  0.002  0.003  0.005
    6  0.003  0.001  0.002  0.006
    7  0.002  0.001  0.002  0.005
    8  0.003  0.001  0.002  0.006
    9  0.000  0.000  0.003  0.003
   10  0.058  0.004  0.004  0.066
   11  0.006  0.010  0.004  0.020
   12  0.015  0.002  0.012  0.029
   13  0.006  0.010  0.004  0.020
   14  0.025  0.000  0.007  0.032
   15  0.002  0.004  0.008  0.014
   16  0.015  0.002  0.012  0.029
   17  0.002  0.004  0.008  0.014
   18  0.007  0.003  0.003  0.012
   19  0.007  0.010  0.004  0.021
   20  0.065  0.004  0.005  0.074
   21  0.016  0.002  0.014  0.033
   22  0.001  0.005  0.008  0.014
   23  0.016  0.002  0.014  0.033
   24  0.006  0.003  0.003  0.011
   25  0.028  0.000  0.007  0.035
   26  0.007  0.010  0.004  0.021
   27  0.001  0.005  0.008  0.014
   28  0.000  0.003  0.004  0.006
   29  0.010  0.003  0.003  0.016
   30  0.004  0.001  0.002  0.008
   31  0.010  0.003  0.003  0.016
   32  0.001  0.001  0.003  0.005
   33  0.004  0.001  0.002  0.008
   34  0.001  0.001  0.003  0.005
   35  0.000  0.000  0.003  0.003
   36  0.000  0.005  0.020  0.025
   37  0.000  0.000  0.000  0.000
   38  0.000  0.001  0.000  0.001
   39  0.000  0.000  0.000  0.000
tot    0.342  0.115  0.193  0.650
 
band    10 # energy   -5.78955427 # occ.  2.00000000
 
ion      s      p      d    tot
    1  0.000  0.003  0.005  0.008
    2  0.000  0.001  0.002  0.003
    3  0.008  0.002  0.002  0.012
    4  0.000  0.001  0.002  0.003
    5  0.000  0.002  0.003  0.005
    6  0.007  0.002  0.002  0.010
    7  0.008  0.002  0.002  0.012
    8  0.007  0.002  0.002  0.010
    9  0.000  0.000  0.003  0.003
   10  0.000  0.002  0.015  0.017
   11  0.019  0.004  0.006  0.028
   12  0.044  0.004  0.006  0.054
   13  0.019  0.004  0.006  0.028
   14  0.000  0.013  0.003  0.016
   15  0.005  0.003  0.005  0.013
   16  0.044  0.004  0.006  0.054
   17  0.005  0.003  0.004  0.013
   18  0.000  0.005  0.009  0.014
   19  0.021  0.004  0.006  0.031
   20  0.000  0.002  0.018  0.019
   21  0.049  0.003  0.008  0.060
   22  0.004  0.003  0.005  0.012
   23  0.049  0.003  0.008  0.060
   24  0.000  0.006  0.009  0.015
   25  0.000  0.013  0.003  0.016
   26  0.021  0.004  0.006  0.031
   27  0.004  0.003  0.005  0.012
   28  0.000  0.003  0.004  0.006
   29  0.000  0.001  0.002  0.003
   30  0.006  0.002  0.003  0.011
   31  0.000  0.001  0.002  0.003
   32  0.009  0.002  0.003  0.014
   33  0.006  0.002  0.003  0.011
   34  0.009  0.002  0.003  0.014
   35  0.000  0.000  0.003  0.003
   36  0.000  0.005  0.020  0.025
   37  0.000  0.000  0.000  0.000
   38  0.000  0.001  0.000  0.001
   39  0.000  0.000  0.000  0.000
tot    0.342  0.115  0.193  0.650
 
band    11 # energy   -5.75144800 # occ.  2.00000000
 
ion      s      p      d    tot
    1  0.000  0.001  0.002  0.003
    2  0.010  0.002  0.002  0.015
    3  0.002  0.001  0.002  0.005
    4  0.010  0.002  0.002  0.015
    5  0.000  0.001  0.004  0.005
    6  0.003  0.001  0.002  0.007
    7  0.002  0.001  0.002  0.005
    8  0.003  0.001  0.002  0.007
    9  0.000  0.003  0.005  0.009
   10  0.000  0.012  0.003  0.014
   11  0.027  0.004  0.005  0.036
   12  0.001  0.003  0.005  0.010
   13  0.027  0.004  0.006  0.036
   14  0.000  0.000  0.016  0.016
   15  0.041  0.004  0.006  0.051
   16  0.001  0.003  0.005  0.010
   17  0.040  0.004  0.006  0.050
   18  0.000  0.008  0.009  0.017
   19  0.026  0.004  0.005  0.035
   20  0.000  0.013  0.002  0.015
   21  0.002  0.004  0.005  0.011
   22  0.043  0.004  0.006  0.053
   23  0.002  0.004  0.005  0.011
   24  0.000  0.008  0.009  0.017
   25  0.000  0.000  0.016  0.016
   26  0.026  0.004  0.006  0.035
   27  0.043  0.004  0.006  0.053
   28  0.000  0.001  0.004  0.006
   29  0.011  0.003  0.003  0.017
   30  0.003  0.002  0.003  0.008
   31  0.011  0.003  0.003  0.016
   32  0.002  0.001  0.002  0.006
   33  0.003  0.002  0.003  0.008
   34  0.002  0.001  0.002  0.006
   35  0.000  0.004  0.005  0.009
   36  0.000  0.002  0.008  0.010
   37  0.000  0.000  0.000  0.000
   38  0.000  0.000  0.000  0.000
   39  0.000  0.000  0.000  0.000
tot    0.344  0.116  0.180  0.640
 
band    12 # energy   -5.75133800 # occ.  2.00000000
 
ion      s      p      d    tot
    1  0.000  0.001  0.002  0.003
    2  0.000  0.001  0.002  0.003
    3  0.008  0.002  0.003  0.013
    4  0.000  0.001  0.002  0.003
    5  0.000  0.001  0.004  0.005
    6  0.007  0.002  0.002  0.011
    7  0.008  0.002  0.003  0.013
    8  0.007  0.002  0.002  0.011
    9  0.000  0.003  0.005  0.009
   10  0.003  0.001  0.005  0.009
   11  0.009  0.001  0.012  0.023
   12  0.000  0.009  0.004  0.012
   13  0.010  0.001  0.012  0.024
   14  0.034  0.004  0.002  0.041
   15  0.012  0.007  0.008  0.027
   16  0.000  0.009  0.004  0.013
   17  0.012  0.007  0.008  0.027
   18  0.056  0.002  0.006  0.064
   19  0.010  0.001  0.012  0.023
   20  0.003  0.001  0.006  0.010
   21  0.001  0.010  0.002  0.013
   22  0.016  0.006  0.008  0.031
   23  0.001  0.010  0.002  0.013
   24  0.054  0.003  0.006  0.062
   25  0.032  0.005  0.002  0.039
   26  0.010  0.001  0.012  0.024
   27  0.016  0.006  0.008  0.030
   28  0.000  0.001  0.004  0.006
   29  0.000  0.001  0.003  0.004
   30  0.008  0.002  0.002  0.012
   31  0.000  0.001  0.003  0.004
   32  0.009  0.002  0.003  0.014
   33  0.008  0.002  0.002  0.012
   34  0.009  0.002  0.003  0.014
   35  0.000  0.004  0.005  0.009
   36  0.000  0.002  0.008  0.010
   37  0.000  0.000  0.000  0.000
   38  0.000  0.000  0.000  0.000
   39  0.000  0.000  0.000  0.000
tot    0.344  0.116  0.180  0.640
 
band    13 # energy   -5.75031544 # occ.  2.00000000
 
ion      s      p      d    tot
    1  0.022  0.003  0.001  0.026
    2  0.000  0.002  0.004  0.006
    3  0.000  0.002  0.004  0.006
    4  0.000  0.002  0.004  0.006
    5  0.001  0.000  0.000  0.002
    6  0.000  0.002  0.004  0.006
    7  0.000  0.002  0.004  0.006
    8  0.000  0.002  0.004  0.006
    9  0.010  0.002  0.000  0.012
   10  0.029  0.005  0.006  0.041
   11  0.004  0.000  0.011  0.016
   12  0.030  0.006  0.006  0.042
   13  0.004  0.000  0.011  0.016
   14  0.006  0.000  0.012  0.019
   15  0.014  0.008  0.003  0.025
   16  0.030  0.006  0.006  0.042
   17  0.014  0.008  0.003  0.025
   18  0.010  0.008  0.003  0.022
   19  0.020  0.009  0.002  0.032
   20  0.000  0.002  0.010  0.012
   21  0.000  0.003  0.011  0.013
   22  0.023  0.002  0.009  0.034
   23  0.000  0.003  0.011  0.013
   24  0.028  0.002  0.009  0.039
   25  0.024  0.009  0.002  0.035
   26  0.020  0.009  0.002  0.032
   27  0.023  0.002  0.009  0.034
   28  0.018  0.003  0.000  0.021
   29  0.000  0.002  0.004  0.005
   30  0.000  0.002  0.004  0.006
   31  0.000  0.002  0.004  0.005
   32  0.000  0.002  0.004  0.006
   33  0.000  0.002  0.004  0.006
   34  0.000  0.002  0.004  0.006
   35  0.013  0.002  0.001  0.016
   36  0.000  0.000  0.000  0.000
   37  0.000  0.000  0.000  0.000
   38  0.000  0.000  0.000  0.000
   39  0.000  0.000  0.000  0.000
tot    0.346  0.115  0.178  0.639
 
band    14 # energy   -5.65033435 # occ.  2.00000000
 
ion      s      p      d    tot
    1  0.000  0.000  0.001  0.001
    2  0.002  0.002  0.006  0.010
    3  0.002  0.002  0.006  0.010
    4  0.002  0.002  0.006  0.010
    5  0.039  0.003  0.000  0.042
    6  0.002  0.002  0.006  0.010
    7  0.002  0.002  0.006  0.010
    8  0.002  0.002  0.006  0.010
    9  0.005  0.002  0.004  0.011
   10  0.003  0.004  0.009  0.016
   11  0.022  0.009  0.004  0.035
   12  0.003  0.004  0.009  0.016
   13  0.022  0.009  0.004  0.035
   14  0.022  0.009  0.004  0.035
   15  0.028  0.002  0.012  0.041
   16  0.003  0.004  0.009  0.016
   17  0.028  0.002  0.012  0.041
   18  0.028  0.002  0.012  0.041
   19  0.007  0.001  0.008  0.017
   20  0.017  0.004  0.007  0.028
   21  0.017  0.004  0.007  0.028
   22  0.007  0.006  0.005  0.018
   23  0.017  0.004  0.007  0.028
   24  0.007  0.006  0.005  0.018
   25  0.007  0.001  0.008  0.017
   26  0.007  0.001  0.008  0.017
   27  0.007  0.006  0.005  0.018
   28  0.000  0.000  0.003  0.003
   29  0.003  0.001  0.003  0.006
   30  0.003  0.001  0.003  0.006
   31  0.003  0.001  0.003  0.006
   32  0.003  0.001  0.003  0.006
   33  0.003  0.001  0.003  0.006
   34  0.003  0.001  0.003  0.006
   35  0.000  0.001  0.002  0.002
   36  0.012  0.009  0.011  0.031
   37  0.003  0.002  0.000  0.005
   38  0.000  0.000  0.000  0.000
   39  0.000  0.000  0.000  0.000
tot    0.338  0.115  0.209  0.662
 
band    15 # energy   -5.03632024 # occ.  2.00000000
 
ion      s      p      d    tot
    1  0.005  0.001  0.010  0.015
    2  0.005  0.001  0.009  0.015
    3  0.005  0.001  0.009  0.015
    4  0.005  0.001  0.009  0.015
    5  0.002  0.001  0.009  0.012
    6  0.005  0.001  0.009  0.015
    7  0.005  0.001  0.009  0.015
    8  0.005  0.001  0.009  0.015
    9  0.012  0.000  0.008  0.020
   10  0.008  0.000  0.025  0.033
   11  0.009  0.000  0.022  0.031
   12  0.008  0.000  0.025  0.033
   13  0.009  0.000  0.022  0.031
   14  0.009  0.000  0.022  0.031
   15  0.004  0.000  0.023  0.027
   16  0.008  0.000  0.025  0.033
   17  0.004  0.000  0.023  0.027
   18  0.004  0.000  0.023  0.027
   19  0.006  0.000  0.020  0.025
   20  0.009  0.000  0.027  0.035
   21  0.009  0.000  0.027  0.036
   22  0.004  0.000  0.020  0.023
   23  0.009  0.000  0.027  0.036
   24  0.004  0.000  0.020  0.024
   25  0.005  0.000  0.020  0.025
   26  0.006  0.000  0.020  0.026
   27  0.004  0.000  0.020  0.023
   28  0.002  0.001  0.007  0.009
   29  0.004  0.000  0.007  0.011
   30  0.004  0.000  0.007  0.012
   31  0.004  0.000  0.007  0.011
   32  0.004  0.000  0.007  0.011
   33  0.004  0.000  0.007  0.012
   34  0.004  0.000  0.007  0.011
   35  0.006  0.000  0.006  0.012
   36  0.003  0.004  0.014  0.022
   37  0.001  0.000  0.000  0.001
   38  0.000  0.000  0.000  0.001
   39  0.000  0.000  0.000  0.000
tot    0.203  0.016  0.561  0.780
 
band    16 # energy   -5.03112364 # occ.  2.00000000
 
ion      s      p      d    tot
    1  0.000  0.003  0.011  0.013
    2  0.019  0.003  0.005  0.027
    3  0.002  0.002  0.005  0.008
    4  0.019  0.003  0.005  0.027
    5  0.000  0.000  0.010  0.010
    6  0.009  0.003  0.005  0.017
    7  0.002  0.002  0.005  0.008
    8  0.009  0.003  0.005  0.017
    9  0.000  0.005  0.008  0.013
   10  0.000  0.004  0.018  0.022
   11  0.005  0.002  0.009  0.017
   12  0.004  0.001  0.009  0.015
   13  0.005  0.002  0.009  0.017
   14  0.000  0.001  0.014  0.016
   15  0.018  0.004  0.009  0.030
   16  0.004  0.001  0.009  0.014
   17  0.018  0.004  0.009  0.030
   18  0.000  0.001  0.022  0.023
   19  0.009  0.004  0.010  0.023
   20  0.000  0.003  0.021  0.024
   21  0.000  0.001  0.013  0.014
   22  0.010  0.003  0.009  0.023
   23  0.000  0.001  0.013  0.014
   24  0.000  0.002  0.027  0.029
   25  0.000  0.000  0.014  0.014
   26  0.009  0.004  0.010  0.023
   27  0.010  0.003  0.009  0.023
   28  0.000  0.003  0.008  0.011
   29  0.023  0.003  0.007  0.033
   30  0.001  0.002  0.008  0.011
   31  0.023  0.003  0.007  0.033
   32  0.014  0.002  0.007  0.023
   33  0.001  0.002  0.008  0.011
   34  0.014  0.002  0.007  0.023
   35  0.000  0.006  0.008  0.014
   36  0.000  0.001  0.037  0.038
   37  0.000  0.000  0.000  0.000
   38  0.000  0.000  0.000  0.000
   39  0.000  0.000  0.000  0.000
tot    0.228  0.092  0.390  0.709
 
band    17 # energy   -5.03108317 # occ.  2.00000000
 
ion      s      p      d    tot
    1  0.000  0.003  0.011  0.013
    2  0.001  0.002  0.005  0.007
    3  0.018  0.003  0.005  0.027
    4  0.001  0.002  0.005  0.007
    5  0.000  0.000  0.010  0.010
    6  0.011  0.003  0.005  0.018
    7  0.018  0.003  0.005  0.027
    8  0.011  0.003  0.005  0.018
    9  0.000  0.005  0.008  0.013
   10  0.005  0.000  0.006  0.012
   11  0.002  0.002  0.013  0.016
   12  0.001  0.003  0.015  0.020
   13  0.002  0.002  0.013  0.016
   14  0.007  0.002  0.008  0.017
   15  0.006  0.002  0.018  0.025
   16  0.001  0.003  0.015  0.020
   17  0.006  0.002  0.018  0.025
   18  0.024  0.005  0.005  0.033
   19  0.003  0.001  0.012  0.017
   20  0.000  0.000  0.010  0.011
   21  0.000  0.003  0.018  0.021
   22  0.004  0.002  0.021  0.027
   23  0.000  0.003  0.018  0.021
   24  0.014  0.004  0.003  0.021
   25  0.013  0.005  0.008  0.026
   26  0.003  0.001  0.012  0.017
   27  0.003  0.002  0.021  0.027
   28  0.000  0.003  0.008  0.011
   29  0.003  0.002  0.008  0.012
   30  0.024  0.003  0.007  0.034
   31  0.003  0.002  0.008  0.012
   32  0.011  0.003  0.008  0.022
   33  0.024  0.003  0.007  0.034
   34  0.011  0.003  0.008  0.022
   35  0.000  0.006  0.008  0.014
   36  0.000  0.001  0.037  0.038
   37  0.000  0.000  0.000  0.000
   38  0.000  0.000  0.000  0.000
   39  0.000  0.000  0.000  0.000
tot    0.228  0.092  0.390  0.709
 
band    18 # energy   -4.99877238 # occ.  2.00000000
 
ion      s      p      d    tot
    1  0.000  0.004  0.009  0.013
    2  0.022  0.004  0.006  0.031
    3  0.002  0.002  0.005  0.010
    4  0.022  0.004  0.006  0.031
    5  0.000  0.006  0.010  0.016
    6  0.010  0.003  0.006  0.018
    7  0.003  0.002  0.005  0.010
    8  0.010  0.003  0.006  0.018
    9  0.000  0.000  0.013  0.013
   10  0.019  0.005  0.008  0.033
   11  0.004  0.003  0.022  0.029
   12  0.005  0.001  0.018  0.024
   13  0.004  0.003  0.022  0.029
   14  0.017  0.003  0.005  0.025
   15  0.000  0.003  0.015  0.017
   16  0.005  0.001  0.018  0.024
   17  0.000  0.003  0.015  0.018
   18  0.000  0.000  0.009  0.010
   19  0.001  0.002  0.018  0.022
   20  0.021  0.006  0.004  0.031
   21  0.005  0.002  0.024  0.031
   22  0.001  0.002  0.012  0.015
   23  0.005  0.002  0.023  0.031
   24  0.005  0.002  0.010  0.017
   25  0.004  0.001  0.006  0.011
   26  0.001  0.002  0.018  0.022
   27  0.001  0.002  0.012  0.015
   28  0.000  0.003  0.009  0.012
   29  0.016  0.004  0.006  0.026
   30  0.001  0.001  0.004  0.007
   31  0.016  0.004  0.006  0.026
   32  0.008  0.002  0.006  0.017
   33  0.001  0.001  0.004  0.007
   34  0.008  0.002  0.006  0.017
   35  0.000  0.000  0.009  0.009
   36  0.000  0.009  0.026  0.035
   37  0.000  0.000  0.000  0.000
   38  0.000  0.000  0.000  0.000
   39  0.000  0.000  0.000  0.000
tot    0.219  0.096  0.401  0.717
 
band    19 # energy   -4.99870566 # occ.  2.00000000
 
ion      s      p      d    tot
    1  0.000  0.004  0.009  0.013
    2  0.001  0.002  0.006  0.008
    3  0.020  0.004  0.006  0.030
    4  0.001  0.002  0.006  0.008
    5  0.000  0.006  0.010  0.016
    6  0.013  0.003  0.005  0.021
    7  0.020  0.004  0.006  0.030
    8  0.013  0.003  0.005  0.021
    9  0.000  0.000  0.013  0.013
   10  0.000  0.000  0.021  0.021
   11  0.012  0.003  0.011  0.026
   12  0.015  0.004  0.011  0.030
   13  0.012  0.003  0.010  0.026
   14  0.000  0.003  0.028  0.030
   15  0.000  0.001  0.011  0.012
   16  0.015  0.004  0.012  0.030
   17  0.000  0.001  0.011  0.012
   18  0.000  0.004  0.017  0.020
   19  0.003  0.001  0.010  0.015
   20  0.000  0.000  0.030  0.030
   21  0.016  0.005  0.010  0.031
   22  0.004  0.002  0.010  0.016
   23  0.016  0.004  0.011  0.031
   24  0.000  0.001  0.013  0.014
   25  0.000  0.003  0.022  0.025
   26  0.003  0.001  0.010  0.014
   27  0.004  0.002  0.011  0.016
   28  0.000  0.003  0.009  0.012
   29  0.001  0.001  0.005  0.007
   30  0.016  0.003  0.007  0.026
   31  0.001  0.001  0.005  0.007
   32  0.009  0.002  0.005  0.016
   33  0.016  0.003  0.007  0.026
   34  0.009  0.002  0.005  0.016
   35  0.000  0.000  0.009  0.009
   36  0.000  0.009  0.026  0.035
   37  0.000  0.000  0.000  0.000
   38  0.000  0.000  0.000  0.000
   39  0.000  0.000  0.000  0.000
tot    0.220  0.096  0.401  0.717
 
band    20 # energy   -4.98832242 # occ.  2.00000000
 
ion      s      p      d    tot
    1  0.035  0.003  0.000  0.038
    2  0.000  0.003  0.010  0.013
    3  0.000  0.003  0.010  0.013
    4  0.000  0.003  0.010  0.013
    5  0.000  0.000  0.000  0.000
    6  0.000  0.003  0.010  0.013
    7  0.000  0.003  0.010  0.013
    8  0.000  0.003  0.010  0.013
    9  0.030  0.004  0.001  0.034
   10  0.008  0.004  0.011  0.022
   11  0.001  0.000  0.015  0.016
   12  0.008  0.004  0.011  0.022
   13  0.001  0.000  0.015  0.016
   14  0.001  0.000  0.015  0.016
   15  0.007  0.003  0.018  0.028
   16  0.008  0.004  0.011  0.022
   17  0.007  0.003  0.018  0.028
   18  0.007  0.003  0.018  0.028
   19  0.005  0.004  0.017  0.026
   20  0.000  0.000  0.015  0.015
   21  0.000  0.000  0.015  0.016
   22  0.012  0.003  0.010  0.026
   23  0.000  0.000  0.015  0.016
   24  0.012  0.003  0.010  0.026
   25  0.005  0.004  0.017  0.026
   26  0.005  0.004  0.017  0.026
   27  0.012  0.003  0.010  0.026
   28  0.037  0.003  0.000  0.040
   29  0.000  0.003  0.010  0.013
   30  0.000  0.003  0.010  0.013
   31  0.000  0.003  0.010  0.013
   32  0.000  0.003  0.010  0.013
   33  0.000  0.003  0.010  0.013
   34  0.000  0.003  0.010  0.013
   35  0.028  0.004  0.001  0.033
   36  0.000  0.000  0.000  0.000
   37  0.000  0.000  0.000  0.000
   38  0.000  0.000  0.000  0.000
   39  0.000  0.000  0.000  0.000