 vasp.6.2.0 18Jan21 (build Jun 12 2021 23:27:24) complex                        
  
 executed on             LinuxIFC date 2022.05.26  20:16:06
 running on   28 total cores
 distrk:  each k-point on   28 cores,    1 groups
 distr:  one band on NCORE=   1 cores,   28 groups


--------------------------------------------------------------------------------------------------------


 INCAR:
   ISMEAR = -5
   SIGMA = 0.1
   ISPIN = 1
   EDIFF = 1.d-5
   EDIFFG = -0.01
   NSW = 0
   NELM = 150
   ENCUT = 500
   ISIF = 2
   IBRION = 2
   LREAL = Auto
   ALGO = Fast
   ICHARG = 11
   LORBIT = 10
   LCHARG = .F.
   LWAVE = .F.

 POTCAR:    PAW_PBE Au 04Oct2007                  
 POTCAR:    PAW_PBE W 08Apr2002                   
 -----------------------------------------------------------------------------
|                                                                             |
|           W    W    AA    RRRRR   N    N  II  N    N   GGGG   !!!           |
|           W    W   A  A   R    R  NN   N  II  NN   N  G    G  !!!           |
|           W    W  A    A  R    R  N N  N  II  N N  N  G       !!!           |
|           W WW W  AAAAAA  RRRRR   N  N N  II  N  N N  G  GGG   !            |
|           WW  WW  A    A  R   R   N   NN  II  N   NN  G    G                |
|           W    W  A    A  R    R  N    N  II  N    N   GGGG   !!!           |
|                                                                             |
|     For optimal performance we recommend to set                             |
|       NCORE = 2 up to number-of-cores-per-socket                            |
|     NCORE specifies how many cores store one orbital (NPAR=cpu/NCORE).      |
|     This setting can greatly improve the performance of VASP for DFT.       |
|     The default, NCORE=1 might be grossly inefficient on modern             |
|     multi-core architectures or massively parallel machines. Do your        |
|     own testing! More info at https://www.vasp.at/wiki/index.php/NCORE      |
|     Unfortunately you need to use the default for GW and RPA                |
|     calculations (for HF NCORE is supported but not extensively tested      |
|     yet).                                                                   |
|                                                                             |
 -----------------------------------------------------------------------------

 POTCAR:    PAW_PBE Au 04Oct2007                  
   VRHFIN =Au: s1d10                                                                                
   LEXCH  = PE                                                                                      
   EATOM  =   926.0867 eV,   68.0654 Ry                                                             
                                                                                                    
   TITEL  = PAW_PBE Au 04Oct2007                                                                    
   LULTRA =        F    use ultrasoft PP ?                                                          
   IUNSCR =        1    unscreen: 0-lin 1-nonlin 2-no                                               
   RPACOR =    2.330    partial core radius                                                         
   POMASS =  196.966; ZVAL   =   11.000    mass and valenz                                          
   RCORE  =    2.500    outmost cutoff radius                                                       
   RWIGS  =    2.840; RWIGS  =    1.503    wigner-seitz radius (au A)                               
   ENMAX  =  229.943; ENMIN  =  172.457 eV                                                          
   ICORE  =        3    local potential                                                             
   LCOR   =        T    correct aug charges                                                         
   LPAW   =        T    paw PP                                                                      
   EAUG   =  356.670                                                                                
   DEXC   =    0.000                                                                                
   RMAX   =    2.562    core radius for proj-oper                                                   
   RAUG   =    1.300    factor for augmentation sphere                                              
   RDEP   =    2.598    radius for radial grids                                                     
   RDEPT  =    2.193    core radius for aug-charge                                                  
                                                                                                    
   Atomic configuration                                                                             
   16 entries                                                                                       
     n  l   j            E        occ.                                                              
     1  0  0.50    -80748.5001   2.0000                                                             
     2  0  0.50    -14244.7466   2.0000                                                             
     2  1  1.50    -12310.9591   6.0000                                                             
     3  0  0.50     -3362.1768   2.0000                                                             
     3  1  1.50     -2801.5463   6.0000                                                             
     3  2  2.50     -2203.8206  10.0000                                                             
     4  0  0.50      -729.8168   2.0000                                                             
     4  1  1.50      -546.0527   6.0000                                                             
     4  2  2.50      -325.7302  10.0000                                                             
     4  3  3.50       -81.1472  14.0000                                                             
     5  0  0.50      -108.3201   2.0000                                                             
     5  1  1.50       -59.7479   6.0000                                                             
     5  2  2.50        -6.8783  10.0000                                                             
     6  0  0.50        -5.7602   1.0000                                                             
     6  1  1.50        -6.8029   0.0000                                                             
     5  3  2.50        -1.3606   0.0000                                                             
   Description                                                                                      
     l       E           TYP  RCUT    TYP  RCUT                                                     
     2     -6.8782861     23  2.500                                                                 
     2     -8.2388687     23  2.500                                                                 
     0     -5.7601759     23  2.500                                                                 
     0     -0.8493231     23  2.500                                                                 
     1     -2.7211652     23  2.500                                                                 
     1     27.2116520     23  2.500                                                                 
     3     -1.3605826     23  2.500                                                                 
  local pseudopotential read in
  partial core-charges read in
  partial kinetic energy density read in
  atomic valenz-charges read in
  non local Contribution for L=           2  read in
    real space projection operators read in
  non local Contribution for L=           2  read in
    real space projection operators read in
  non local Contribution for L=           0  read in
    real space projection operators read in
  non local Contribution for L=           0  read in
    real space projection operators read in
  non local Contribution for L=           1  read in
    real space projection operators read in
  non local Contribution for L=           1  read in
    real space projection operators read in
    PAW grid and wavefunctions read in
 
   number of l-projection  operators is LMAX  =           6
   number of lm-projection operators is LMMAX =          18
 
 POTCAR:    PAW_PBE W 08Apr2002                   
   VRHFIN =W : 6s5d                                                                                 
   LEXCH  = PE                                                                                      
   EATOM  =   204.6103 eV,   15.0384 Ry                                                             
                                                                                                    
   TITEL  = PAW_PBE W 08Apr2002                                                                     
   LULTRA =        F    use ultrasoft PP ?                                                          
   IUNSCR =        1    unscreen: 0-lin 1-nonlin 2-no                                               
   RPACOR =    2.330    partial core radius                                                         
   POMASS =  183.850; ZVAL   =    6.000    mass and valenz                                          
   RCORE  =    2.750    outmost cutoff radius                                                       
   RWIGS  =    2.750; RWIGS  =    1.455    wigner-seitz radius (au A)                               
   ENMAX  =  223.057; ENMIN  =  167.293 eV                                                          
   RCLOC  =    2.147    cutoff for local pot                                                        
   LCOR   =        T    correct aug charges                                                         
   LPAW   =        T    paw PP                                                                      
   EAUG   =  373.438                                                                                
   DEXC   =    0.000                                                                                
   RMAX   =    2.801    core radius for proj-oper                                                   
   RAUG   =    1.300    factor for augmentation sphere                                              
   RDEP   =    2.886    radius for radial grids                                                     
   RDEPT  =    2.230    core radius for aug-charge                                                  
                                                                                                    
   Atomic configuration                                                                             
   16 entries                                                                                       
     n  l   j            E        occ.                                                              
     1  0  0.50    -69465.5836   2.0000                                                             
     2  0  0.50    -11986.2642   2.0000                                                             
     2  1  1.50    -10479.8616   6.0000                                                             
     3  0  0.50     -2759.0758   2.0000                                                             
     3  1  1.50     -2313.1857   6.0000                                                             
     3  2  2.50     -1801.1185  10.0000                                                             
     4  0  0.50      -567.6791   2.0000                                                             
     4  1  1.50      -421.4694   6.0000                                                             
     4  2  2.50      -236.3473  10.0000                                                             
     4  3  3.50       -31.2666  14.0000                                                             
     5  0  0.50       -77.1085   2.0000                                                             
     5  1  1.50       -41.3856   6.0000                                                             
     5  2  2.50        -3.3185   5.0000                                                             
     6  0  0.50        -5.1438   1.0000                                                             
     6  1  0.50        -3.8096   0.0000                                                             
     5  3  2.50        -1.3606   0.0000                                                             
   Description                                                                                      
     l       E           TYP  RCUT    TYP  RCUT                                                     
     2     -3.3185288     23  2.500                                                                 
     2     -1.5965414     23  2.500                                                                 
     0     -5.1438054     23  2.500                                                                 
     0      4.9117504     23  2.500                                                                 
     1      2.7211652     23  2.750                                                                 
     1     27.2116520     23  2.750                                                                 
  local pseudopotential read in
  partial core-charges read in
  partial kinetic energy density read in
  atomic valenz-charges read in
  non local Contribution for L=           2  read in
    real space projection operators read in
  non local Contribution for L=           2  read in
    real space projection operators read in
  non local Contribution for L=           0  read in
    real space projection operators read in
  non local Contribution for L=           0  read in
    real space projection operators read in
  non local Contribution for L=           1  read in
    real space projection operators read in
  non local Contribution for L=           1  read in
    real space projection operators read in
    PAW grid and wavefunctions read in
 
   number of l-projection  operators is LMAX  =           6
   number of lm-projection operators is LMMAX =          18
 
 Optimization of the real space projectors (new method)

 maximal supplied QI-value         = 15.12
 optimisation between [QCUT,QGAM] = [ 11.34, 22.83] = [ 36.00,145.93] Ry 
 Optimized for a Real-space Cutoff    1.39 Angstroem

   l    n(q)    QCUT    max X(q) W(low)/X(q) W(high)/X(q)  e(spline) 
   2      9    11.338    60.898    0.39E-03    0.42E-03    0.21E-06
   2      9    11.338    58.894    0.40E-03    0.42E-03    0.22E-06
   0      9    11.338   109.617    0.13E-03    0.20E-04    0.13E-06
   0      9    11.338    75.026    0.13E-03    0.20E-04    0.13E-06
   1      9    11.338    16.344    0.33E-04    0.24E-03    0.18E-06
   1      9    11.338    10.160    0.26E-04    0.19E-03    0.15E-06
 Optimization of the real space projectors (new method)

 maximal supplied QI-value         = 13.61
 optimisation between [QCUT,QGAM] = [ 11.43, 22.86] = [ 36.58,146.31] Ry 
 Optimized for a Real-space Cutoff    1.56 Angstroem

   l    n(q)    QCUT    max X(q) W(low)/X(q) W(high)/X(q)  e(spline) 
   2     10    11.429   130.855    0.22E-03    0.64E-03    0.11E-05
   2     10    11.429   114.007    0.22E-03    0.64E-03    0.11E-05
   0     11    11.429    84.709    0.39E-04    0.67E-04    0.23E-06
   0     11    11.429    49.163    0.35E-04    0.62E-04    0.21E-06
   1     10    11.429    15.765    0.84E-04    0.15E-03    0.24E-06
   1     10    11.429    10.638    0.58E-04    0.12E-03    0.19E-06
  PAW_PBE Au 04Oct2007                  :
 energy of atom  1       EATOM= -926.0867
 kinetic energy error for atom=    0.0042 (will be added to EATOM!!)
  PAW_PBE W 08Apr2002                   :
 energy of atom  2       EATOM= -204.6103
 kinetic energy error for atom=    0.0017 (will be added to EATOM!!)
 
 
 POSCAR: Au-W
  positions in direct lattice
  velocities in cartesian coordinates
 exchange correlation table for  LEXCH =        8
   RHO(1)=    0.500       N(1)  =     2000
   RHO(2)=  100.500       N(2)  =     4000

 VTST: version 3.2, (02/03/18)

 CHAIN: initializing optimizer
 
 OPT: Using VASP Conjugate-Gradient optimizer
 CHAIN: Read ICHAIN            0
 
 POSCAR: Au-W
  positions in direct lattice
  velocities in cartesian coordinates
 


--------------------------------------------------------------------------------------------------------


 ion  position               nearest neighbor table
   1  0.000  0.000  0.238-  16 2.94  12 2.94   6 2.94   8 2.94   7 2.94   3 2.94  10 2.94   4 2.94
                             2 2.94
   2  0.333  0.000  0.238-   9 2.94  11 2.94  17 2.94  10 2.94   8 2.94   4 2.94   5 2.94   1 2.94
                             3 2.94
   3  0.667  0.000  0.238-   7 2.94  18 2.94  12 2.94   1 2.94  11 2.94   5 2.94   6 2.94   9 2.94
                             2 2.94
   4  0.000  0.333  0.238-  10 2.94   6 2.94   5 2.94  13 2.94   2 2.94  15 2.94   9 2.94   1 2.94
                             7 2.94
   5  0.333  0.333  0.238-  13 2.94   7 2.94  11 2.94   4 2.94   2 2.94  14 2.94   3 2.94   8 2.94
                             6 2.94
   6  0.667  0.333  0.238-  15 2.94  14 2.94   1 2.94  12 2.94   4 2.94   9 2.94   8 2.94   3 2.94
                             5 2.94
   7  0.000  0.667  0.238-  18 2.94   3 2.94  16 2.94   5 2.94   1 2.94  13 2.94   8 2.94   4 2.94
                             9 2.94
   8  0.333  0.667  0.238-   9 2.94  17 2.94   1 2.94   2 2.94  14 2.94  16 2.94   6 2.94   7 2.94
                             5 2.94
   9  0.667  0.667  0.238-   2 2.94   8 2.94  17 2.94   6 2.94  15 2.94   4 2.94   3 2.94  18 2.94
                             7 2.94
  10  0.111  0.111  0.346-  20 2.90  11 2.94  17 2.94   2 2.94   4 2.94   1 2.94  12 2.94  16 2.94
                            13 2.94  15 2.94  26 2.96  19 2.96
  11  0.444  0.111  0.346-  20 2.91  21 2.91  13 2.94   2 2.94  10 2.94  17 2.94   5 2.94   3 2.94
                            18 2.94  14 2.94  12 2.94  27 2.94
  12  0.778  0.111  0.346-  21 2.90  16 2.94  18 2.94   1 2.94  14 2.94  15 2.94   3 2.94   6 2.94
                            10 2.94  11 2.94  25 2.96  19 2.96
  13  0.111  0.444  0.346-  23 2.91  20 2.91   5 2.94  18 2.94  11 2.94   7 2.94   4 2.94  16 2.94
                            10 2.94  14 2.94  15 2.94  22 2.94
  14  0.444  0.444  0.346-  21 2.91  23 2.91  15 2.94   6 2.94  12 2.94   8 2.94  17 2.94   5 2.94
                            16 2.94  13 2.94  11 2.94  24 2.94
  15  0.778  0.444  0.346-  24 2.92  22 2.92  14 2.94   6 2.94  17 2.94  12 2.94   9 2.94   4 2.94
                            10 2.94  13 2.94  18 2.94  19 2.95
  16  0.111  0.778  0.346-  23 2.90  18 2.94  12 2.94   7 2.94   1 2.94   8 2.94  13 2.94  10 2.94
                            14 2.94  17 2.94  25 2.96  26 2.96
  17  0.444  0.778  0.346-  27 2.92  24 2.92   9 2.94  15 2.94   2 2.94  10 2.94  11 2.94   8 2.94
                            14 2.94  16 2.94  18 2.94  26 2.95
  18  0.778  0.778  0.346-  22 2.92  27 2.92  16 2.94   7 2.94  13 2.94  12 2.94   3 2.94  11 2.94
                             9 2.94  15 2.94  17 2.94  25 2.95
  19  0.888  0.224  0.455-  24 2.93  22 2.93  21 2.93  20 2.93  28 2.94  15 2.95  26 2.96  25 2.96
                            10 2.96  12 2.96  32 3.04  31 3.04
  20  0.222  0.222  0.452-  36 2.74  10 2.90  11 2.91  13 2.91  26 2.93  19 2.93  23 2.95  21 2.95
                            27 2.96  22 2.96  29 2.98  31 2.98
  21  0.557  0.222  0.452-  36 2.74  12 2.90  14 2.91  11 2.91  25 2.93  19 2.93  20 2.95  23 2.95
                            27 2.96  24 2.96  30 2.98  32 2.98
  22  0.886  0.557  0.454-  24 2.90  27 2.90  18 2.92  15 2.92  25 2.93  19 2.93  13 2.94  35 2.95
                            23 2.96  20 2.96  33 3.02  31 3.02
  23  0.222  0.557  0.452-  36 2.74  16 2.90  13 2.91  14 2.91  25 2.93  26 2.93  20 2.95  21 2.95
                            22 2.96  24 2.96  33 2.98  34 2.98
  24  0.557  0.557  0.454-  27 2.90  22 2.90  15 2.92  17 2.92  26 2.93  19 2.93  14 2.94  35 2.95
                            21 2.96  23 2.96  32 3.02  34 3.02
  25  0.888  0.888  0.455-  22 2.93  27 2.93  23 2.93  21 2.93  28 2.94  18 2.95  19 2.96  26 2.96
                            16 2.96  12 2.96  33 3.04  30 3.04
  26  0.224  0.888  0.455-  27 2.93  24 2.93  20 2.93  23 2.93  28 2.94  17 2.95  19 2.96  25 2.96
                            10 2.96  16 2.96  29 3.04  34 3.04
  27  0.557  0.886  0.454-  24 2.90  22 2.90  17 2.92  18 2.92  26 2.93  25 2.93  11 2.94  35 2.95
                            20 2.96  21 2.96  29 3.02  30 3.02
  28  0.000  0.000  0.563-  25 2.94  19 2.94  26 2.94  34 3.00  32 3.00  33 3.00  30 3.00  31 3.00
                            29 3.00
  29  0.334  0.013  0.566-  30 2.82  31 2.82  36 2.84  20 2.98  35 3.00  28 3.00  27 3.02  26 3.04
                            34 3.17
  30  0.653  0.013  0.566-  29 2.82  32 2.82  36 2.84  21 2.98  35 3.00  28 3.00  27 3.02  25 3.04
                            33 3.17
  31  0.013  0.334  0.566-  33 2.82  29 2.82  36 2.84  20 2.98  35 3.00  28 3.00  22 3.02  19 3.04
                            32 3.17
  32  0.653  0.334  0.566-  34 2.82  30 2.82  36 2.84  21 2.98  35 3.00  28 3.00  24 3.02  19 3.04
                            31 3.17
  33  0.013  0.653  0.566-  31 2.82  34 2.82  36 2.84  23 2.98  35 3.00  28 3.00  22 3.02  25 3.04
                            30 3.17
  34  0.334  0.653  0.566-  32 2.82  33 2.82  36 2.84  23 2.98  35 3.00  28 3.00  24 3.02  26 3.04
                            29 3.17
  35  0.667  0.667  0.563-  24 2.95  27 2.95  22 2.95  29 3.00  34 3.00  32 3.00  31 3.00  30 3.00
                            33 3.00
  36  0.333  0.333  0.549-  20 2.74  23 2.74  21 2.74  33 2.84  31 2.84  29 2.84  30 2.84  34 2.84
                            32 2.84
 
  LATTYP: Found a hexagonal cell.
 ALAT       =     8.8135128021
 C/A-ratio  =     2.5184286595
  
  Lattice vectors:
  
 A1 = (  -4.4067569092,  -7.6327256898,   0.0000000000)
 A2 = (   8.8135128021,   0.0000000000,   0.0000000000)
 A3 = (   0.0000000000,   0.0000000000,  22.1962032318)


Analysis of symmetry for initial positions (statically):
=====================================================================
 Subroutine PRICEL returns:
 Original cell was already a primitive cell.
 

 Routine SETGRP: Setting up the symmetry group for a 
 hexagonal supercell.


 Subroutine GETGRP returns: Found  6 space group operations
 (whereof  6 operations were pure point group operations)
 out of a pool of 24 trial point group operations.


The static configuration has the point symmetry C_3v.


Analysis of symmetry for dynamics (positions and initial velocities):
=====================================================================
 Subroutine PRICEL returns:
 Original cell was already a primitive cell.
 

 Routine SETGRP: Setting up the symmetry group for a 
 hexagonal supercell.


 Subroutine GETGRP returns: Found  6 space group operations
 (whereof  6 operations were pure point group operations)
 out of a pool of 24 trial point group operations.


The dynamic configuration has the point symmetry C_3v.


Analysis of constrained symmetry for selective dynamics:
=====================================================================
 Subroutine PRICEL returns:
 Original cell was already a primitive cell.
 

 Routine SETGRP: Setting up the symmetry group for a 
 hexagonal supercell.


 Subroutine GETGRP returns: Found  6 space group operations
 (whereof  6 operations were pure point group operations)
 out of a pool of 24 trial point group operations.


The constrained configuration has the point symmetry C_3v.


 Subroutine INISYM returns: Found  6 space group operations
 (whereof  6 operations are pure point group operations),
 and found     1 'primitive' translations


----------------------------------------------------------------------------------------

                                     Primitive cell                                     

  volume of cell :    1493.1636

  direct lattice vectors                    reciprocal lattice vectors
     8.813512802  0.000000000  0.000000000     0.113462137 -0.065507406  0.000000000
     4.406756909  7.632725690  0.000000000     0.000000000  0.131014796  0.000000000
     0.000000000  0.000000000 22.196203232     0.000000000  0.000000000  0.045052750

  length of vectors
     8.813512802  8.813512802 22.196203232     0.131014796  0.131014796  0.045052750

  position of ions in fractional coordinates (direct lattice)
     0.000000000  0.000000000  0.237895638
     0.333333343  0.000000000  0.237895638
     0.666666687  0.000000000  0.237895638
     1.000000000  0.333333343  0.237895638
     0.333333313  0.333333343  0.237895638
     0.666666687  0.333333343  0.237895638
     1.000000000  0.666666687  0.237895638
     0.333333343  0.666666687  0.237895638
     0.666666627  0.666666687  0.237895638
     0.111111119  0.111111112  0.345965207
     0.444444418  0.111111112  0.345965207
     0.777777791  0.111111112  0.345965207
     0.111111127  0.444444448  0.345965207
     0.444444478  0.444444448  0.345965207
     0.777777731  0.444444448  0.345965207
     0.111111090  0.777777791  0.345965207
     0.444444448  0.777777791  0.345965207
     0.777777851  0.777777791  0.345965207
     0.888108940  0.223782136  0.455069452
     0.221743954  0.221743939  0.452335038
     0.556512152  0.221743939  0.452335038
     0.886138604  0.556930728  0.453520865
     0.221743909  0.556512152  0.452335038
     0.556930728  0.556930728  0.453520865
     0.888108940  0.888108940  0.455069452
     0.223782166  0.888108940  0.455069452
     0.556930668  0.886138604  0.453520865
     0.000000000  0.000000000  0.563124211
     0.333684557  0.013163897  0.565613076
     0.653151576  0.013163897  0.565613076
     0.013163897  0.333684557  0.565613076
     0.653151576  0.333684557  0.565613076
     0.013163897  0.653151576  0.565613076
     0.333684557  0.653151576  0.565613076
     0.666666627  0.666666687  0.563100484
     0.333333313  0.333333343  0.548994823

  ion indices of the primitive-cell ions
   primitive index   ion index
                 1           1
                 2           2
                 3           3
                 4           4
                 5           5
                 6           6
                 7           7
                 8           8
                 9           9
                10          10
                11          11
                12          12
                13          13
                14          14
                15          15
                16          16
                17          17
                18          18
                19          19
                20          20
                21          21
                22          22
                23          23
                24          24
                25          25
                26          26
                27          27
                28          28
                29          29
                30          30
                31          31
                32          32
                33          33
                34          34
                35          35
                36          36

----------------------------------------------------------------------------------------

 
 
 KPOINTS: Automatic mesh                          

Automatic generation of k-mesh.
 Grid dimensions read from file:
 generate k-points for:    8    8    1

 Generating k-lattice:

  Cartesian coordinates                     Fractional coordinates (reciprocal lattice)
     0.014182767 -0.008188426  0.000000000     0.125000000 -0.000000000  0.000000000
     0.000000000  0.016376850  0.000000000     0.000000000  0.125000000  0.000000000
     0.000000000  0.000000000  0.045052750     0.000000000  0.000000000  1.000000000

  Length of vectors
     0.016376850  0.016376850  0.045052750

  Shift w.r.t. Gamma in fractional coordinates (k-lattice)
     0.000000000  0.000000000  0.000000000

 TETIRR: Found     36 inequivalent tetrahedra from      384
 
 Subroutine IBZKPT returns following result:
 ===========================================
 
 Found     10 irreducible k-points:
 
 Following reciprocal coordinates:
            Coordinates               Weight
  0.000000  0.000000  0.000000      1.000000
  0.125000 -0.000000  0.000000      6.000000
  0.250000 -0.000000  0.000000      6.000000
  0.375000  0.000000  0.000000      6.000000
  0.500000 -0.000000  0.000000      3.000000
  0.250000  0.125000  0.000000      6.000000
  0.375000  0.125000  0.000000     12.000000
  0.500000  0.125000  0.000000     12.000000
  0.500000  0.250000  0.000000      6.000000
 -0.375000  0.250000  0.000000      6.000000
 
 Following cartesian coordinates:
            Coordinates               Weight
  0.000000  0.000000  0.000000      1.000000
  0.014183 -0.008188  0.000000      6.000000
  0.028366 -0.016377  0.000000      6.000000
  0.042548 -0.024565  0.000000      6.000000
  0.056731 -0.032754  0.000000      3.000000
  0.028366 -0.000000  0.000000      6.000000
  0.042548 -0.008188  0.000000     12.000000
  0.056731 -0.016377  0.000000     12.000000
  0.056731 -0.000000  0.000000      6.000000
 -0.042548  0.057319  0.000000      6.000000
 


--------------------------------------------------------------------------------------------------------




 Dimension of arrays:
   k-points           NKPTS =     10   k-points in BZ     NKDIM =     10   number of bands    NBANDS=    252
   number of dos      NEDOS =    301   number of ions     NIONS =     36
   non local maximal  LDIM  =      6   non local SUM 2l+1 LMDIM =     18
   total plane-waves  NPLWV = 290304
   max r-space proj   IRMAX =   3166   max aug-charges    IRDMAX=  12088
   dimension x,y,z NGX =    48 NGY =   48 NGZ =  126
   dimension x,y,z NGXF=    96 NGYF=   96 NGZF=  252
   support grid    NGXF=    96 NGYF=   96 NGZF=  252
   ions per type =              35   1
   NGX,Y,Z   is equivalent  to a cutoff of   9.05,  9.05,  9.44 a.u.
   NGXF,Y,Z  is equivalent  to a cutoff of  18.11, 18.11, 18.87 a.u.

 SYSTEM =  unknown system                          
 POSCAR =  Au-W                                    

 Startparameter for this run:
   NWRITE =      2    write-flag & timer
   PREC   = normal    normal or accurate (medium, high low for compatibility)
   ISTART =      0    job   : 0-new  1-cont  2-samecut
   ICHARG =     11    charge: 1-file 2-atom 10-const
   ISPIN  =      1    spin polarized calculation?
   LNONCOLLINEAR =      F non collinear calculations
   LSORBIT =      F    spin-orbit coupling
   INIWAV =      1    electr: 0-lowe 1-rand  2-diag
   LASPH  =      F    aspherical Exc in radial PAW
   METAGGA=      F    non-selfconsistent MetaGGA calc.

 Electronic Relaxation 1
   ENCUT  =  500.0 eV  36.75 Ry    6.06 a.u.  16.07 16.07 40.47*2*pi/ulx,y,z
   ENINI  =  500.0     initial cutoff
   ENAUG  =  373.4 eV  augmentation charge cutoff
   NELM   =    150;   NELMIN=  2; NELMDL= -5     # of ELM steps 
   EDIFF  = 0.1E-04   stopping-criterion for ELM
   LREAL  =      T    real-space projection
   NLSPLINE    = F    spline interpolate recip. space projectors
   LCOMPAT=      F    compatible to vasp.4.4
   GGA_COMPAT  = T    GGA compatible to vasp.4.4-vasp.4.6
   LMAXPAW     = -100 max onsite density
   LMAXMIX     =    2 max onsite mixed and CHGCAR
   VOSKOWN=      0    Vosko Wilk Nusair interpolation
   ROPT   =   -0.00050  -0.00050
 Ionic relaxation
   EDIFFG = -.1E-01   stopping-criterion for IOM
   NSW    =      0    number of steps for IOM
   NBLOCK =      1;   KBLOCK =      1    inner block; outer block 
   IBRION =     -1    ionic relax: 0-MD 1-quasi-New 2-CG
   NFREE  =      1    steps in history (QN), initial steepest desc. (CG)
   ISIF   =      2    stress and relaxation
   IWAVPR =     10    prediction:  0-non 1-charg 2-wave 3-comb
   ISYM   =      2    0-nonsym 1-usesym 2-fastsym
   LCORR  =      T    Harris-Foulkes like correction to forces

   POTIM  = 0.5000    time-step for ionic-motion
   TEIN   =    0.0    initial temperature
   TEBEG  =    0.0;   TEEND  =   0.0 temperature during run
   SMASS  =  -3.00    Nose mass-parameter (am)
   estimated Nose-frequenzy (Omega)   =  0.10E-29 period in steps = 0.13E+47 mass=  -0.178E-26a.u.
   SCALEE = 1.0000    scale energy and forces
   NPACO  =    256;   APACO  = 16.0  distance and # of slots for P.C.
   PSTRESS=    0.0 pullay stress

  Mass of Ions in am
   POMASS = 196.97183.85
  Ionic Valenz
   ZVAL   =  11.00  6.00
  Atomic Wigner-Seitz radii
   RWIGS  =  -1.00 -1.00
  virtual crystal weights 
   VCA    =   1.00  1.00
   NELECT =     391.0000    total number of electrons
   NUPDOWN=      -1.0000    fix difference up-down

 DOS related values:
   EMIN   =  10.00;   EMAX   =-10.00  energy-range for DOS
   EFERMI =   0.00
   ISMEAR =    -5;   SIGMA  =   0.10  broadening in eV -4-tet -1-fermi 0-gaus

 Electronic relaxation 2 (details)
   IALGO  =     68    algorithm
   LDIAG  =      T    sub-space diagonalisation (order eigenvalues)
   LSUBROT=      F    optimize rotation matrix (better conditioning)
   TURBO    =      0    0=normal 1=particle mesh
   IRESTART =      0    0=no restart 2=restart with 2 vectors
   NREBOOT  =      0    no. of reboots
   NMIN     =      0    reboot dimension
   EREF     =   0.00    reference energy to select bands
   IMIX   =      4    mixing-type and parameters
     AMIX     =   0.40;   BMIX     =  1.00
     AMIX_MAG =   1.60;   BMIX_MAG =  1.00
     AMIN     =   0.10
     WC   =   100.;   INIMIX=   1;  MIXPRE=   1;  MAXMIX= -45

 Intra band minimization:
   WEIMIN = 0.0000     energy-eigenvalue tresh-hold
   EBREAK =  0.99E-08  absolut break condition
   DEPER  =   0.30     relativ break condition  

   TIME   =   0.40     timestep for ELM

  volume/ion in A,a.u.               =      41.48       279.90
  Fermi-wavevector in a.u.,A,eV,Ry     =   1.047365  1.979232 14.925223  1.096973
  Thomas-Fermi vector in A             =   2.182242
 
 Write flags
   LWAVE        =      F    write WAVECAR
   LDOWNSAMPLE  =      F    k-point downsampling of WAVECAR
   LCHARG       =      F    write CHGCAR
   LVTOT        =      F    write LOCPOT, total local potential
   LVHAR        =      F    write LOCPOT, Hartree potential only
   LELF         =      F    write electronic localiz. function (ELF)
   LORBIT       =     10    0 simple, 1 ext, 2 COOP (PROOUT), +10 PAW based schemes


 Dipole corrections
   LMONO  =      F    monopole corrections only (constant potential shift)
   LDIPOL =      F    correct potential (dipole corrections)
   IDIPOL =      0    1-x, 2-y, 3-z, 4-all directions 
   EPSILON=  1.0000000 bulk dielectric constant

 Exchange correlation treatment:
   GGA     =    --    GGA type
   LEXCH   =     8    internal setting for exchange type
   VOSKOWN=      0    Vosko Wilk Nusair interpolation
   LHFCALC =     F    Hartree Fock is set to
   LHFONE  =     F    Hartree Fock one center treatment
   AEXX    =    0.0000 exact exchange contribution

 Linear response parameters
   LEPSILON=     F    determine dielectric tensor
   LRPA    =     F    only Hartree local field effects (RPA)
   LNABLA  =     F    use nabla operator in PAW spheres
   LVEL    =     F    velocity operator in full k-point grid
   LINTERFAST=   F  fast interpolation
   KINTER  =     0    interpolate to denser k-point grid
   CSHIFT  =0.1000    complex shift for real part using Kramers Kronig
   OMEGAMAX=  -1.0    maximum frequency
   DEG_THRESHOLD= 0.2000000E-02 threshold for treating states as degnerate
   RTIME   =   -0.100 relaxation time in fs
  (WPLASMAI=    0.000 imaginary part of plasma frequency in eV, 0.658/RTIME)
   DFIELD  = 0.0000000 0.0000000 0.0000000 field for delta impulse in time
 
 Orbital magnetization related:
   ORBITALMAG=     F  switch on orbital magnetization
   LCHIMAG   =     F  perturbation theory with respect to B field
   DQ        =  0.001000  dq finite difference perturbation B field
   LLRAUG    =     F  two centre corrections for induced B field



--------------------------------------------------------------------------------------------------------


 Static calculation
 charge density and potential remain constant during run
 non-spin polarized calculation
 RMM-DIIS sequential band-by-band and
  variant of blocked Davidson during initial phase
 perform sub-space diagonalisation
    before iterative eigenvector-optimisation
 no mixing
 using additional bands           56
 real space projection scheme for non local part
 use partial core corrections
 calculate Harris-corrections to forces 
   (improved forces if not selfconsistent)
 use gradient corrections 
 WARNING: stress and forces are not correct
  (second derivative of E(xc) not defined)
 use of overlap-Matrix (Vanderbilt PP)
 Fermi weights with tetrahedron method with Bloechl corrections


--------------------------------------------------------------------------------------------------------


  energy-cutoff  :      500.00
  volume of cell :     1493.16
      direct lattice vectors                 reciprocal lattice vectors
     8.813512802  0.000000000  0.000000000     0.113462137 -0.065507406  0.000000000
     4.406756909  7.632725690  0.000000000     0.000000000  0.131014796  0.000000000
     0.000000000  0.000000000 22.196203232     0.000000000  0.000000000  0.045052750

  length of vectors
     8.813512802  8.813512802 22.196203232     0.131014796  0.131014796  0.045052750


 
 k-points in units of 2pi/SCALE and weight: Automatic mesh                          
   0.00000000  0.00000000  0.00000000       0.016
   0.01418277 -0.00818843  0.00000000       0.094
   0.02836553 -0.01637685  0.00000000       0.094
   0.04254830 -0.02456528  0.00000000       0.094
   0.05673107 -0.03275370  0.00000000       0.047
   0.02836553 -0.00000000  0.00000000       0.094
   0.04254830 -0.00818843  0.00000000       0.188
   0.05673107 -0.01637685  0.00000000       0.188
   0.05673107 -0.00000000  0.00000000       0.094
  -0.04254830  0.05731898  0.00000000       0.094
 
 k-points in reciprocal lattice and weights: Automatic mesh                          
   0.00000000  0.00000000  0.00000000       0.016
   0.12500000 -0.00000000  0.00000000       0.094
   0.25000000 -0.00000000  0.00000000       0.094
   0.37500000  0.00000000  0.00000000       0.094
   0.50000000 -0.00000000  0.00000000       0.047
   0.25000000  0.12500000  0.00000000       0.094
   0.37500000  0.12500000  0.00000000       0.188
   0.50000000  0.12500000  0.00000000       0.188
   0.50000000  0.25000000  0.00000000       0.094
  -0.37500000  0.25000000  0.00000000       0.094
 
 position of ions in fractional coordinates (direct lattice) 
   0.00000000  0.00000000  0.23789564
   0.33333334  0.00000000  0.23789564
   0.66666669  0.00000000  0.23789564
   0.00000000  0.33333334  0.23789564
   0.33333331  0.33333334  0.23789564
   0.66666669  0.33333334  0.23789564
   0.00000000  0.66666669  0.23789564
   0.33333334  0.66666669  0.23789564
   0.66666663  0.66666669  0.23789564
   0.11111112  0.11111111  0.34596521
   0.44444442  0.11111111  0.34596521
   0.77777779  0.11111111  0.34596521
   0.11111113  0.44444445  0.34596521
   0.44444448  0.44444445  0.34596521
   0.77777773  0.44444445  0.34596521
   0.11111109  0.77777779  0.34596521
   0.44444445  0.77777779  0.34596521
   0.77777785  0.77777779  0.34596521
   0.88810894  0.22378214  0.45506945
   0.22174395  0.22174394  0.45233504
   0.55651215  0.22174394  0.45233504
   0.88613860  0.55693073  0.45352087
   0.22174391  0.55651215  0.45233504
   0.55693073  0.55693073  0.45352087
   0.88810894  0.88810894  0.45506945
   0.22378217  0.88810894  0.45506945
   0.55693067  0.88613860  0.45352087
   0.00000000  0.00000000  0.56312421
   0.33368456  0.01316390  0.56561308
   0.65315158  0.01316390  0.56561308
   0.01316390  0.33368456  0.56561308
   0.65315158  0.33368456  0.56561308
   0.01316390  0.65315158  0.56561308
   0.33368456  0.65315158  0.56561308
   0.66666663  0.66666669  0.56310048
   0.33333331  0.33333334  0.54899482
 
 position of ions in cartesian coordinates  (Angst):
   0.00000000  0.00000000  5.28037993
   2.93783769  0.00000000  5.28037993
   5.87567538  0.00000000  5.28037993
   1.46891901  2.54424197  5.28037993
   4.40675643  2.54424197  5.28037993
   7.34459439  2.54424197  5.28037993
   2.93783803  5.08848395  5.28037993
   5.87567571  5.08848395  5.28037993
   8.81351288  5.08848395  5.28037993
   1.46891893  0.84808064  7.67911405
   4.40675623  0.84808064  7.67911405
   7.34459418  0.84808064  7.67911405
   2.93783798  3.39232256  7.67911405
   5.87567574  3.39232256  7.67911405
   8.81351263  3.39232256  7.67911405
   4.40675667  5.93656453  7.67911405
   7.34459449  5.93656453  7.67911405
  10.28243270  5.93656453  7.67911405
   8.81351299  1.70806766 10.10081404
   2.93151481  1.69251066 10.04012044
   5.88199861  1.69251066 10.04012044
  10.26425226  4.25089948 10.06644130
   4.40675655  4.24770460 10.04012044
   7.36277444  4.25089948 10.06644130
  11.74103972  6.77869192 10.10081404
   5.88598719  6.77869192 10.10081404
   8.81351299  6.76365289 10.06644130
   0.00000000  0.00000000 12.49921944
   2.99894321  0.10047641 12.55446278
   5.81456987  0.10047641 12.55446278
   1.58648690  2.54692269 12.55446278
   7.22702651  2.54692269 12.55446278
   2.99430039  4.98532682 12.55446278
   5.81921334  4.98532682 12.55446278
   8.81351288  5.08848395 12.49869278
   4.40675643  2.54424197 12.18560065
 


--------------------------------------------------------------------------------------------------------


 k-point   1 :   0.0000 0.0000 0.0000  plane waves:   37827
 k-point   2 :   0.1250-0.0000 0.0000  plane waves:   37876
 k-point   3 :   0.2500-0.0000 0.0000  plane waves:   37924
 k-point   4 :   0.3750 0.0000 0.0000  plane waves:   37904
 k-point   5 :   0.5000-0.0000 0.0000  plane waves:   37912
 k-point   6 :   0.2500 0.1250 0.0000  plane waves:   37858
 k-point   7 :   0.3750 0.1250 0.0000  plane waves:   37928
 k-point   8 :   0.5000 0.1250 0.0000  plane waves:   37924
 k-point   9 :   0.5000 0.2500 0.0000  plane waves:   37926
 k-point  10 :  -0.3750 0.2500 0.0000  plane waves:   37916

 maximum and minimum number of plane-waves per node :     37928    37827

 maximum number of plane-waves:     37928
 maximum index in each direction: 
   IXMAX=   16   IYMAX=   16   IZMAX=   40
   IXMIN=  -16   IYMIN=  -16   IZMIN=  -40


 serial   3D FFT for wavefunctions
 parallel 3D FFT for charge:
    minimum data exchange during FFTs selected (reduces bandwidth)


 total amount of memory used by VASP MPI-rank0   121700. kBytes
=======================================================================

   base      :      30000. kBytes
   nonlr-proj:      14112. kBytes
   fftplans  :       4330. kBytes
   grid      :      17098. kBytes
   one-center:        559. kBytes
   wavefun   :      55601. kBytes
 
     INWAV:  cpu time    0.0000: real time    0.0001
 initial charge density was supplied:
 number of electron     390.9999996 magnetization 
 keeping initial charge density in first step


--------------------------------------------------------------------------------------------------------


 Maximum index for non-local projection operator         3035
 Maximum index for augmentation-charges          850 (set IRDMAX)


--------------------------------------------------------------------------------------------------------


 First call to EWALD:  gamma=   0.155
 Maximum number of real-space cells 4x 4x 2
 Maximum number of reciprocal cells 2x 2x 5

    FEWALD:  cpu time    0.0013: real time    0.0014


--------------------------------------- Iteration      1(   1)  ---------------------------------------


    POTLOK:  cpu time    0.0416: real time    0.0419
    SETDIJ:  cpu time    0.0048: real time    0.0048
     EDDAV:  cpu time    8.2257: real time    8.2318
 BZINTS: Fermi energy:   11.092125;  391.000000 electrons
         Band energy: 0.148167E+04;  BLOECHL correction:   -0.024005
       DOS:  cpu time    0.0116: real time    0.0117
    --------------------------------------------
      LOOP:  cpu time    8.2837: real time    8.2902

 eigenvalue-minimisations  :  5040
 total energy-change (2. order) : 0.2548409E+04  (-0.1765992E+05)
 number of electron     390.9999996 magnetization 
 augmentation part      390.9999996 magnetization 

 Free energy of the ion-electron system (eV)
  ---------------------------------------------------
  alpha Z        PSCENC =      1002.30664656
  Ewald energy   TEWEN  =     94742.34266559
  -Hartree energ DENC   =   -128549.47288784
  -exchange      EXHF   =         0.00000000
  -V(xc)+E(xc)   XCENC  =       469.22231658
  PAW double counting   =     35599.77321162   -34814.92413223
  entropy T*S    EENTRO =         0.00000000
  eigenvalues    EBANDS =      1481.66604703
  atomic energy  EATOM  =     32617.49483436
  Solvation  Ediel_sol  =         0.00000000
  ---------------------------------------------------
  free energy    TOTEN  =      2548.40870167 eV

  energy without entropy =     2548.40870167  energy(sigma->0) =     2548.40870167


--------------------------------------------------------------------------------------------------------




--------------------------------------- Iteration      1(   2)  ---------------------------------------


     EDDAV:  cpu time   11.9446: real time   11.9480
 BZINTS: Fermi energy:    1.428229;  391.000000 electrons
         Band energy:-0.106252E+04;  BLOECHL correction:   -0.021173
       DOS:  cpu time    0.0110: real time    0.0110
    --------------------------------------------
      LOOP:  cpu time   11.9556: real time   11.9590

 eigenvalue-minimisations  :  5628
 total energy-change (2. order) :-0.2544187E+04  (-0.2337260E+04)
 number of electron     390.9999996 magnetization 
 augmentation part      390.9999996 magnetization 

 Free energy of the ion-electron system (eV)
  ---------------------------------------------------
  alpha Z        PSCENC =      1002.30664656
  Ewald energy   TEWEN  =     94742.34266559
  -Hartree energ DENC   =   -128549.47288784
  -exchange      EXHF   =         0.00000000
  -V(xc)+E(xc)   XCENC  =       469.22231658
  PAW double counting   =     35599.77321162   -34814.92413223
  entropy T*S    EENTRO =         0.00000000
  eigenvalues    EBANDS =     -1062.52122410
  atomic energy  EATOM  =     32617.49483436
  Solvation  Ediel_sol  =         0.00000000
  ---------------------------------------------------
  free energy    TOTEN  =         4.22143055 eV

  energy without entropy =        4.22143055  energy(sigma->0) =        4.22143055


--------------------------------------------------------------------------------------------------------




--------------------------------------- Iteration      1(   3)  ---------------------------------------


     EDDAV:  cpu time   12.3515: real time   12.3646
 BZINTS: Fermi energy:    0.732500;  391.000000 electrons
         Band energy:-0.118127E+04;  BLOECHL correction:   -0.027912
       DOS:  cpu time    0.0103: real time    0.0103
    --------------------------------------------
      LOOP:  cpu time   12.3618: real time   12.3749

 eigenvalue-minimisations  :  5880
 total energy-change (2. order) :-0.1187508E+03  (-0.1143137E+03)
 number of electron     390.9999996 magnetization 
 augmentation part      390.9999996 magnetization 

 Free energy of the ion-electron system (eV)
  ---------------------------------------------------
  alpha Z        PSCENC =      1002.30664656
  Ewald energy   TEWEN  =     94742.34266559
  -Hartree energ DENC   =   -128549.47288784
  -exchange      EXHF   =         0.00000000
  -V(xc)+E(xc)   XCENC  =       469.22231658
  PAW double counting   =     35599.77321162   -34814.92413223
  entropy T*S    EENTRO =         0.00000000
  eigenvalues    EBANDS =     -1181.27202230
  atomic energy  EATOM  =     32617.49483436
  Solvation  Ediel_sol  =         0.00000000
  ---------------------------------------------------
  free energy    TOTEN  =      -114.52936766 eV

  energy without entropy =     -114.52936766  energy(sigma->0) =     -114.52936766


--------------------------------------------------------------------------------------------------------




--------------------------------------- Iteration      1(   4)  ---------------------------------------


     EDDAV:  cpu time   12.6609: real time   12.6619
 BZINTS: Fermi energy:    0.715924;  391.000000 electrons
         Band energy:-0.118357E+04;  BLOECHL correction:   -0.028548
       DOS:  cpu time    0.0106: real time    0.0105
    --------------------------------------------
      LOOP:  cpu time   12.6715: real time   12.6724

 eigenvalue-minimisations  :  5992
 total energy-change (2. order) :-0.2299682E+01  (-0.2295531E+01)
 number of electron     390.9999996 magnetization 
 augmentation part      390.9999996 magnetization 

 Free energy of the ion-electron system (eV)
  ---------------------------------------------------
  alpha Z        PSCENC =      1002.30664656
  Ewald energy   TEWEN  =     94742.34266559
  -Hartree energ DENC   =   -128549.47288784
  -exchange      EXHF   =         0.00000000
  -V(xc)+E(xc)   XCENC  =       469.22231658
  PAW double counting   =     35599.77321162   -34814.92413223
  entropy T*S    EENTRO =         0.00000000
  eigenvalues    EBANDS =     -1183.57170445
  atomic energy  EATOM  =     32617.49483436
  Solvation  Ediel_sol  =         0.00000000
  ---------------------------------------------------
  free energy    TOTEN  =      -116.82904981 eV

  energy without entropy =     -116.82904981  energy(sigma->0) =     -116.82904981


--------------------------------------------------------------------------------------------------------




--------------------------------------- Iteration      1(   5)  ---------------------------------------


     EDDAV:  cpu time   12.7464: real time   12.7950
 BZINTS: Fermi energy:    0.715493;  391.000000 electrons
         Band energy:-0.118362E+04;  BLOECHL correction:   -0.028554
       DOS:  cpu time    0.0102: real time    0.0102
    --------------------------------------------
      LOOP:  cpu time   12.7565: real time   12.8051

 eigenvalue-minimisations  :  6132
 total energy-change (2. order) :-0.4964579E-01  (-0.4963883E-01)
 number of electron     390.9999996 magnetization 
 augmentation part      390.9999996 magnetization 

 Free energy of the ion-electron system (eV)
  ---------------------------------------------------
  alpha Z        PSCENC =      1002.30664656
  Ewald energy   TEWEN  =     94742.34266559
  -Hartree energ DENC   =   -128549.47288784
  -exchange      EXHF   =         0.00000000
  -V(xc)+E(xc)   XCENC  =       469.22231658
  PAW double counting   =     35599.77321162   -34814.92413223
  entropy T*S    EENTRO =         0.00000000
  eigenvalues    EBANDS =     -1183.62135024
  atomic energy  EATOM  =     32617.49483436
  Solvation  Ediel_sol  =         0.00000000
  ---------------------------------------------------
  free energy    TOTEN  =      -116.87869560 eV

  energy without entropy =     -116.87869560  energy(sigma->0) =     -116.87869560


--------------------------------------------------------------------------------------------------------




--------------------------------------- Iteration      1(   6)  ---------------------------------------


    EDDIAG:  cpu time    2.0933: real time    2.0940
  RMM-DIIS:  cpu time    6.4358: real time    6.4392
    ORTHCH:  cpu time    0.3770: real time    0.3770
 BZINTS: Fermi energy:    0.715481;  391.000000 electrons
         Band energy:-0.118362E+04;  BLOECHL correction:   -0.028553
       DOS:  cpu time    0.0117: real time    0.0117
    --------------------------------------------
      LOOP:  cpu time    8.9178: real time    8.9219

 eigenvalue-minimisations  :  4993
 total energy-change (2. order) :-0.1492947E-02  (-0.1494127E-02)
 number of electron     390.9999996 magnetization 
 augmentation part      390.9999996 magnetization 

 Free energy of the ion-electron system (eV)
  ---------------------------------------------------
  alpha Z        PSCENC =      1002.30664656
  Ewald energy   TEWEN  =     94742.34266559
  -Hartree energ DENC   =   -128549.47288784
  -exchange      EXHF   =         0.00000000
  -V(xc)+E(xc)   XCENC  =       469.22231658
  PAW double counting   =     35599.77321162   -34814.92413223
  entropy T*S    EENTRO =         0.00000000
  eigenvalues    EBANDS =     -1183.62284319
  atomic energy  EATOM  =     32617.49483436
  Solvation  Ediel_sol  =         0.00000000
  ---------------------------------------------------
  free energy    TOTEN  =      -116.88018854 eV

  energy without entropy =     -116.88018854  energy(sigma->0) =     -116.88018854


--------------------------------------------------------------------------------------------------------




--------------------------------------- Iteration      1(   7)  ---------------------------------------


    EDDIAG:  cpu time    2.0802: real time    2.0804
  RMM-DIIS:  cpu time    8.3570: real time    8.3572
    ORTHCH:  cpu time    0.3607: real time    0.3607
 BZINTS: Fermi energy:    0.715478;  391.000000 electrons
         Band energy:-0.118362E+04;  BLOECHL correction:   -0.028553
       DOS:  cpu time    0.0108: real time    0.0108
    --------------------------------------------
      LOOP:  cpu time   10.8087: real time   10.8090

 eigenvalue-minimisations  :  6557
 total energy-change (2. order) :-0.4400591E-03  (-0.4393800E-03)
 number of electron     390.9999996 magnetization 
 augmentation part      390.9999996 magnetization 

 Free energy of the ion-electron system (eV)
  ---------------------------------------------------
  alpha Z        PSCENC =      1002.30664656
  Ewald energy   TEWEN  =     94742.34266559
  -Hartree energ DENC   =   -128549.47288784
  -exchange      EXHF   =         0.00000000
  -V(xc)+E(xc)   XCENC  =       469.22231658
  PAW double counting   =     35599.77321162   -34814.92413223
  entropy T*S    EENTRO =         0.00000000
  eigenvalues    EBANDS =     -1183.62328325
  atomic energy  EATOM  =     32617.49483436
  Solvation  Ediel_sol  =         0.00000000
  ---------------------------------------------------
  free energy    TOTEN  =      -116.88062860 eV

  energy without entropy =     -116.88062860  energy(sigma->0) =     -116.88062860


--------------------------------------------------------------------------------------------------------




--------------------------------------- Iteration      1(   8)  ---------------------------------------


    EDDIAG:  cpu time    2.1032: real time    2.1045
  RMM-DIIS:  cpu time    7.6793: real time    7.6870
    ORTHCH:  cpu time    0.4266: real time    0.4284
 BZINTS: Fermi energy:    0.715478;  391.000000 electrons
         Band energy:-0.118362E+04;  BLOECHL correction:   -0.028553
       DOS:  cpu time    0.0100: real time    0.0100
    --------------------------------------------
      LOOP:  cpu time   10.2191: real time   10.2298

 eigenvalue-minimisations  :  5907
 total energy-change (2. order) :-0.4054647E-04  (-0.4032687E-04)
 number of electron     390.9999996 magnetization 
 augmentation part      390.9999996 magnetization 

 Free energy of the ion-electron system (eV)
  ---------------------------------------------------
  alpha Z        PSCENC =      1002.30664656
  Ewald energy   TEWEN  =     94742.34266559
  -Hartree energ DENC   =   -128549.47288784
  -exchange      EXHF   =         0.00000000
  -V(xc)+E(xc)   XCENC  =       469.22231658
  PAW double counting   =     35599.77321162   -34814.92413223
  entropy T*S    EENTRO =         0.00000000
  eigenvalues    EBANDS =     -1183.62332379
  atomic energy  EATOM  =     32617.49483436
  Solvation  Ediel_sol  =         0.00000000
  ---------------------------------------------------
  free energy    TOTEN  =      -116.88066915 eV

  energy without entropy =     -116.88066915  energy(sigma->0) =     -116.88066915


--------------------------------------------------------------------------------------------------------




--------------------------------------- Iteration      1(   9)  ---------------------------------------


    EDDIAG:  cpu time    2.4120: real time    2.4121
  RMM-DIIS:  cpu time    5.8357: real time    5.8358
    ORTHCH:  cpu time    0.3770: real time    0.3770
 BZINTS: Fermi energy:    0.715478;  391.000000 electrons
         Band energy:-0.118362E+04;  BLOECHL correction:   -0.028553
       DOS:  cpu time    0.0110: real time    0.0110
    --------------------------------------------
      LOOP:  cpu time    8.6357: real time    8.6359

 eigenvalue-minimisations  :  3287
 total energy-change (2. order) :-0.2515284E-05  (-0.2445905E-05)
 number of electron     390.9999996 magnetization 
 augmentation part      390.9999996 magnetization 

 Free energy of the ion-electron system (eV)
  ---------------------------------------------------
  alpha Z        PSCENC =      1002.30664656
  Ewald energy   TEWEN  =     94742.34266559
  -Hartree energ DENC   =   -128549.47288784
  -exchange      EXHF   =         0.00000000
  -V(xc)+E(xc)   XCENC  =       469.22231658
  PAW double counting   =     35599.77321162   -34814.92413223
  entropy T*S    EENTRO =         0.00000000
  eigenvalues    EBANDS =     -1183.62332631
  atomic energy  EATOM  =     32617.49483436
  Solvation  Ediel_sol  =         0.00000000
  ---------------------------------------------------
  free energy    TOTEN  =      -116.88067167 eV

  energy without entropy =     -116.88067167  energy(sigma->0) =     -116.88067167


--------------------------------------------------------------------------------------------------------




 average (electrostatic) potential at core
  the test charge radii are     1.2098  1.1823
  (the norm of the test charge is              1.0000)
       1 -72.3348       2 -72.3038       3 -72.3037       4 -72.3038       5 -72.3027
       6 -72.3035       7 -72.3037       8 -72.3035       9 -72.3079      10 -72.6625
      11 -72.6055      12 -72.6623      13 -72.6055      14 -72.6051      15 -72.6336
      16 -72.6623      17 -72.6336      18 -72.6338      19 -72.5874      20 -72.9212
      21 -72.9211      22 -72.5931      23 -72.9211      24 -72.5928      25 -72.5876
      26 -72.5874      27 -72.5931      28 -72.3069      29 -72.5081      30 -72.5082
      31 -72.5081      32 -72.5080      33 -72.5082      34 -72.5080      35 -72.3092
      36 -45.8681
 
 
 
 E-fermi :   0.7155     XC(G=0):  -6.0951     alpha+bet : -5.7211

 Fermi energy:         0.7154776526

 k-point     1 :       0.0000    0.0000    0.0000
  band No.  band energies     occupation 
      1      -8.1211      2.00000
      2      -6.9976      2.00000
      3      -6.0706      2.00000
      4      -6.0012      2.00000
      5      -5.9904      2.00000
      6      -5.9904      2.00000
      7      -5.9530      2.00000
      8      -5.9035      2.00000
      9      -5.8914      2.00000
     10      -5.8913      2.00000
     11      -5.5069      2.00000
     12      -5.5030      2.00000
     13      -5.5030      2.00000
     14      -5.4711      2.00000
     15      -5.4162      2.00000
     16      -5.4162      2.00000
     17      -5.1526      2.00000
     18      -5.1433      2.00000
     19      -5.1432      2.00000
     20      -5.0972      2.00000
     21      -5.0677      2.00000
     22      -5.0677      2.00000
     23      -4.9992      2.00000
     24      -4.9251      2.00000
     25      -4.9250      2.00000
     26      -4.9179      2.00000
     27      -4.9179      2.00000
     28      -4.9055      2.00000
     29      -4.7931      2.00000
     30      -4.7931      2.00000
     31      -4.7819      2.00000
     32      -4.7703      2.00000
     33      -4.7352      2.00000
     34      -4.7352      2.00000
     35      -4.7322      2.00000
     36      -4.7321      2.00000
     37      -4.6929      2.00000
     38      -4.6906      2.00000
     39      -4.6906      2.00000
     40      -4.6812      2.00000
     41      -4.2647      2.00000
     42      -4.2647      2.00000
     43      -4.2559      2.00000
     44      -4.2317      2.00000
     45      -4.2317      2.00000
     46      -4.2046      2.00000
     47      -4.1759      2.00000
     48      -4.1758      2.00000
     49      -4.1438      2.00000
     50      -4.1438      2.00000
     51      -4.0590      2.00000
     52      -4.0538      2.00000
     53      -4.0416      2.00000
     54      -3.9647      2.00000
     55      -3.7516      2.00000
     56      -3.7005      2.00000
     57      -3.7005      2.00000
     58      -3.6742      2.00000
     59      -3.6736      2.00000
     60      -3.6736      2.00000
     61      -3.6627      2.00000
     62      -3.5825      2.00000
     63      -3.5825      2.00000
     64      -3.5367      2.00000
     65      -3.5367      2.00000
     66      -3.5201      2.00000
     67      -3.4982      2.00000
     68      -3.4982      2.00000
     69      -3.4799      2.00000
     70      -3.4799      2.00000
     71      -3.4635      2.00000
     72      -3.4345      2.00000
     73      -3.4008      2.00000
     74      -3.4008      2.00000
     75      -3.3862      2.00000
     76      -3.3861      2.00000
     77      -3.3773      2.00000
     78      -3.3772      2.00000
     79      -3.3769      2.00000
     80      -3.3331      2.00000
     81      -3.3331      2.00000
     82      -3.3057      2.00000
     83      -3.2991      2.00000
     84      -3.2991      2.00000
     85      -3.2975      2.00000
     86      -3.2260      2.00000
     87      -3.2260      2.00000
     88      -3.2127      2.00000
     89      -3.2126      2.00000
     90      -3.2054      2.00000
     91      -3.2054      2.00000
     92      -3.1722      2.00000
     93      -3.1335      2.00000
     94      -3.1335      2.00000
     95      -2.9507      2.00000
     96      -2.9507      2.00000
     97      -2.9471      2.00000
     98      -2.9471      2.00000
     99      -2.8381      2.00000
    100      -2.8140      2.00000
    101      -2.8139      2.00000
    102      -2.8011      2.00000
    103      -2.7848      2.00000
    104      -2.7847      2.00000
    105      -2.6962      2.00000
    106      -2.6962      2.00000
    107      -2.6630      2.00000
    108      -2.6274      2.00000
    109      -2.5867      2.00000
    110      -2.5867      2.00000
    111      -2.5499      2.00000
    112      -2.5499      2.00000
    113      -2.4946      2.00000
    114      -2.4721      2.00000
    115      -2.4538      2.00000
    116      -2.3688      2.00000
    117      -2.3688      2.00000
    118      -2.3403      2.00000
    119      -2.2863      2.00000
    120      -2.2863      2.00000
    121      -2.2665      2.00000
    122      -2.2652      2.00000
    123      -2.2652      2.00000
    124      -2.2138      2.00000
    125      -2.2138      2.00000
    126      -2.1830      2.00000
    127      -2.1830      2.00000
    128      -2.0999      2.00000
    129      -2.0999      2.00000
    130      -2.0725      2.00000
    131      -2.0503      2.00000
    132      -2.0350      2.00000
    133      -2.0350      2.00000
    134      -2.0213      2.00000
    135      -2.0157      2.00000
    136      -2.0157      2.00000
    137      -2.0116      2.00000
    138      -2.0116      2.00000
    139      -1.9484      2.00000
    140      -1.8926      2.00000
    141      -1.8926      2.00000
    142      -1.8397      2.00000
    143      -1.8397      2.00000
    144      -1.8330      2.00000
    145      -1.8151      2.00000
    146      -1.8151      2.00000
    147      -1.8090      2.00000
    148      -1.7576      2.00000
    149      -1.7576      2.00000
    150      -1.7427      2.00000
    151      -1.7352      2.00000
    152      -1.6764      2.00000
    153      -1.6762      2.00000
    154      -1.6761      2.00000
    155      -1.6607      2.00000
    156      -1.6607      2.00000
    157      -1.6319      2.00000
    158      -1.6132      2.00000
    159      -1.5943      2.00000
    160      -1.5943      2.00000
    161      -1.5554      2.00000
    162      -1.5554      2.00000
    163      -1.5403      2.00000
    164      -1.5390      2.00000
    165      -1.5247      2.00000
    166      -1.5247      2.00000
    167      -1.5142      2.00000
    168      -1.5142      2.00000
    169      -1.5124      2.00000
    170      -1.4849      2.00000
    171      -1.4551      2.00000
    172      -1.4550      2.00000
    173      -1.4311      2.00000
    174      -1.4287      2.00000
    175      -1.4229      2.00000
    176      -1.4229      2.00000
    177      -1.4196      2.00000
    178      -1.3918      2.00000
    179      -1.3917      2.00000
    180      -1.3551      2.00000
    181      -1.3392      2.00000
    182      -1.3392      2.00000
    183      -1.2849      2.00000
    184      -1.2848      2.00000
    185      -1.1848      2.00000
    186      -1.1848      2.00000
    187      -1.1797      2.00000
    188      -1.1452      2.00000
    189      -1.1452      2.00000
    190      -1.1357      2.00000
    191      -0.3884      2.00000
    192      -0.1441      2.00000
    193      -0.1441      2.00000
    194      -0.1414      2.00000
    195       0.0782      2.00000
    196       0.0783      2.00000
    197       0.1310      2.00000
    198       0.7548      0.00000
    199       0.7548      0.00000
    200       0.9942      0.00000
    201       1.0025      0.00000
    202       1.0025      0.00000
    203       1.2035      0.00000
    204       2.2063      0.00000
    205       2.2680      0.00000
    206       2.2680      0.00000
    207       2.4803      0.00000
    208       2.6958      0.00000
    209       2.6958      0.00000
    210       3.4951      0.00000
    211       3.5325      0.00000
    212       3.5326      0.00000
    213       3.6370      0.00000
    214       3.6370      0.00000
    215       3.6857      0.00000
    216       4.0552      0.00000
    217       4.4313      0.00000
    218       5.2816      0.00000
    219       5.3242      0.00000
    220       5.3242      0.00000
    221       5.3359      0.00000
    222       5.4090      0.00000
    223       5.4091      0.00000
    224       5.4730      0.00000
    225       5.4734      0.00000
    226       5.4735      0.00000
    227       5.6761      0.00000
    228       5.6761      0.00000
    229       5.6826      0.00000
    230       6.1194      0.00000
    231       6.2106      0.00000
    232       6.9175      0.00000
    233       7.0045      0.00000
    234       7.0045      0.00000
    235       7.0316      0.00000
    236       7.0317      0.00000
    237       7.0333      0.00000
    238       7.0618      0.00000
    239       7.1612      0.00000
    240       7.1614      0.00000
    241       7.1694      0.00000
    242       7.2088      0.00000
    243       7.2090      0.00000
    244       7.3771      0.00000
    245       7.3783      0.00000
    246       7.4553      0.00000
    247       7.5164      0.00000
    248       7.5206      0.00000
    249       7.5993      0.00000
    250       7.8332      0.00000
    251       7.8747      0.00000
    252       8.0395      0.00000

 k-point     2 :       0.1250   -0.0000    0.0000
  band No.  band energies     occupation 
      1      -8.0702      2.00000
      2      -6.9485      2.00000
      3      -6.2171      2.00000
      4      -6.0446      2.00000
      5      -6.0289      2.00000
      6      -5.9857      2.00000
      7      -5.9095      2.00000
      8      -5.8460      2.00000
      9      -5.8147      2.00000
     10      -5.8028      2.00000
     11      -5.5350      2.00000
     12      -5.5074      2.00000
     13      -5.4801      2.00000
     14      -5.4547      2.00000
     15      -5.4205      2.00000
     16      -5.3922      2.00000
     17      -5.1651      2.00000
     18      -5.1271      2.00000
     19      -5.1256      2.00000
     20      -5.0962      2.00000
     21      -5.0504      2.00000
     22      -5.0430      2.00000
     23      -5.0383      2.00000
     24      -4.9833      2.00000
     25      -4.9572      2.00000
     26      -4.8724      2.00000
     27      -4.8687      2.00000
     28      -4.8503      2.00000
     29      -4.8190      2.00000
     30      -4.8164      2.00000
     31      -4.8045      2.00000
     32      -4.7797      2.00000
     33      -4.7770      2.00000
     34      -4.7703      2.00000
     35      -4.7461      2.00000
     36      -4.6876      2.00000
     37      -4.6706      2.00000
     38      -4.6476      2.00000
     39      -4.5892      2.00000
     40      -4.5813      2.00000
     41      -4.3195      2.00000
     42      -4.2996      2.00000
     43      -4.2935      2.00000
     44      -4.2707      2.00000
     45      -4.2611      2.00000
     46      -4.2499      2.00000
     47      -4.1962      2.00000
     48      -4.1579      2.00000
     49      -4.1321      2.00000
     50      -4.1014      2.00000
     51      -4.0447      2.00000
     52      -4.0361      2.00000
     53      -4.0176      2.00000
     54      -3.9665      2.00000
     55      -3.7806      2.00000
     56      -3.7319      2.00000
     57      -3.7162      2.00000
     58      -3.7057      2.00000
     59      -3.6809      2.00000
     60      -3.6744      2.00000
     61      -3.6708      2.00000
     62      -3.6401      2.00000
     63      -3.6179      2.00000
     64      -3.5914      2.00000
     65      -3.5877      2.00000
     66      -3.5741      2.00000
     67      -3.5647      2.00000
     68      -3.5551      2.00000
     69      -3.5277      2.00000
     70      -3.5078      2.00000
     71      -3.5028      2.00000
     72      -3.4721      2.00000
     73      -3.4632      2.00000
     74      -3.4586      2.00000
     75      -3.4459      2.00000
     76      -3.4245      2.00000
     77      -3.3786      2.00000
     78      -3.3644      2.00000
     79      -3.3406      2.00000
     80      -3.3323      2.00000
     81      -3.3056      2.00000
     82      -3.2967      2.00000
     83      -3.2649      2.00000
     84      -3.2621      2.00000
     85      -3.2548      2.00000
     86      -3.2252      2.00000
     87      -3.1940      2.00000
     88      -3.1927      2.00000
     89      -3.1732      2.00000
     90      -3.1565      2.00000
     91      -3.1413      2.00000
     92      -3.1350      2.00000
     93      -3.0996      2.00000
     94      -3.0916      2.00000
     95      -3.0416      2.00000
     96      -3.0395      2.00000
     97      -2.9357      2.00000
     98      -2.9086      2.00000
     99      -2.9064      2.00000
    100      -2.8286      2.00000
    101      -2.8151      2.00000
    102      -2.8053      2.00000
    103      -2.7825      2.00000
    104      -2.7762      2.00000
    105      -2.7634      2.00000
    106      -2.7184      2.00000
    107      -2.6494      2.00000
    108      -2.6382      2.00000
    109      -2.6193      2.00000
    110      -2.6022      2.00000
    111      -2.5921      2.00000
    112      -2.5680      2.00000
    113      -2.5567      2.00000
    114      -2.5430      2.00000
    115      -2.5410      2.00000
    116      -2.4989      2.00000
    117      -2.4861      2.00000
    118      -2.4779      2.00000
    119      -2.4738      2.00000
    120      -2.4106      2.00000
    121      -2.3709      2.00000
    122      -2.2843      2.00000
    123      -2.2674      2.00000
    124      -2.2559      2.00000
    125      -2.2436      2.00000
    126      -2.2190      2.00000
    127      -2.2059      2.00000
    128      -2.2035      2.00000
    129      -2.1656      2.00000
    130      -2.1590      2.00000
    131      -2.1380      2.00000
    132      -2.1333      2.00000
    133      -2.1199      2.00000
    134      -2.0462      2.00000
    135      -2.0358      2.00000
    136      -2.0110      2.00000
    137      -1.9887      2.00000
    138      -1.9612      2.00000
    139      -1.9586      2.00000
    140      -1.9501      2.00000
    141      -1.9446      2.00000
    142      -1.9325      2.00000
    143      -1.8673      2.00000
    144      -1.8580      2.00000
    145      -1.8346      2.00000
    146      -1.7962      2.00000
    147      -1.7606      2.00000
    148      -1.7462      2.00000
    149      -1.7371      2.00000
    150      -1.7270      2.00000
    151      -1.7063      2.00000
    152      -1.6946      2.00000
    153      -1.6890      2.00000
    154      -1.6374      2.00000
    155      -1.6372      2.00000
    156      -1.6148      2.00000
    157      -1.6007      2.00000
    158      -1.5983      2.00000
    159      -1.5796      2.00000
    160      -1.5649      2.00000
    161      -1.5301      2.00000
    162      -1.5225      2.00000
    163      -1.5220      2.00000
    164      -1.4874      2.00000
    165      -1.4820      2.00000
    166      -1.4730      2.00000
    167      -1.4539      2.00000
    168      -1.4539      2.00000
    169      -1.4265      2.00000
    170      -1.4239      2.00000
    171      -1.4056      2.00000
    172      -1.3878      2.00000
    173      -1.3708      2.00000
    174      -1.3485      2.00000
    175      -1.3434      2.00000
    176      -1.3176      2.00000
    177      -1.2763      2.00000
    178      -1.2561      2.00000
    179      -1.2483      2.00000
    180      -1.2413      2.00000
    181      -1.2246      2.00000
    182      -1.2121      2.00000
    183      -1.1946      2.00000
    184      -1.1783      2.00000
    185      -1.1409      2.00000
    186      -1.1328      2.00000
    187      -1.0896      2.00000
    188      -1.0294      2.00000
    189      -1.0140      2.00000
    190      -0.9464      2.00000
    191      -0.3860      2.00000
    192      -0.3085      2.00000
    193      -0.1903      2.00000
    194      -0.1477      2.00000
    195       0.1619      2.00000
    196       0.2172      2.00000
    197       0.4990      2.00000
    198       0.7615      0.00000
    199       0.7886      0.00000
    200       1.0039      0.00000
    201       1.0536      0.00000
    202       1.1920      0.00000
    203       1.2659      0.00000
    204       1.9036      0.00000
    205       2.2522      0.00000
    206       2.2573      0.00000
    207       2.6448      0.00000
    208       2.7813      0.00000
    209       2.8753      0.00000
    210       2.9242      0.00000
    211       3.1168      0.00000
    212       3.6291      0.00000
    213       3.6426      0.00000
    214       3.8114      0.00000
    215       3.9451      0.00000
    216       4.1374      0.00000
    217       4.3546      0.00000
    218       4.8189      0.00000
    219       5.0401      0.00000
    220       5.1549      0.00000
    221       5.1739      0.00000
    222       5.1839      0.00000
    223       5.3260      0.00000
    224       5.3825      0.00000
    225       5.5475      0.00000
    226       5.5996      0.00000
    227       5.7230      0.00000
    228       5.7420      0.00000
    229       5.7983      0.00000
    230       6.1747      0.00000
    231       6.3383      0.00000
    232       6.4270      0.00000
    233       6.6038      0.00000
    234       6.6348      0.00000
    235       6.7125      0.00000
    236       6.7373      0.00000
    237       6.8615      0.00000
    238       6.9087      0.00000
    239       6.9468      0.00000
    240       7.0272      0.00000
    241       7.0866      0.00000
    242       7.1661      0.00000
    243       7.3863      0.00000
    244       7.4431      0.00000
    245       7.4536      0.00000
    246       7.5337      0.00000
    247       7.6702      0.00000
    248       7.7202      0.00000
    249       7.7670      0.00000
    250       7.8623      0.00000
    251       7.9629      0.00000
    252       7.9661      0.00000

 k-point     3 :       0.2500   -0.0000    0.0000
  band No.  band energies     occupation 
      1      -7.9197      2.00000
      2      -6.8091      2.00000
      3      -6.5585      2.00000
      4      -6.0790      2.00000
      5      -6.0656      2.00000
      6      -5.8615      2.00000
      7      -5.7849      2.00000
      8      -5.7751      2.00000
      9      -5.6993      2.00000
     10      -5.6700      2.00000
     11      -5.6500      2.00000
     12      -5.5536      2.00000
     13      -5.4186      2.00000
     14      -5.4032      2.00000
     15      -5.3671      2.00000
     16      -5.3297      2.00000
     17      -5.2257      2.00000
     18      -5.1112      2.00000
     19      -5.0987      2.00000
     20      -5.0976      2.00000
     21      -5.0517      2.00000
     22      -5.0118      2.00000
     23      -4.9876      2.00000
     24      -4.9641      2.00000
     25      -4.9532      2.00000
     26      -4.9373      2.00000
     27      -4.9159      2.00000
     28      -4.9135      2.00000
     29      -4.8879      2.00000
     30      -4.8693      2.00000
     31      -4.7984      2.00000
     32      -4.7307      2.00000
     33      -4.7256      2.00000
     34      -4.7096      2.00000
     35      -4.6899      2.00000
     36      -4.5973      2.00000
     37      -4.5850      2.00000
     38      -4.5440      2.00000
     39      -4.5187      2.00000
     40      -4.4968      2.00000
     41      -4.4120      2.00000
     42      -4.3828      2.00000
     43      -4.3481      2.00000
     44      -4.3025      2.00000
     45      -4.2957      2.00000
     46      -4.2743      2.00000
     47      -4.2273      2.00000
     48      -4.1444      2.00000
     49      -4.1114      2.00000
     50      -4.0730      2.00000
     51      -4.0655      2.00000
     52      -4.0379      2.00000
     53      -4.0036      2.00000
     54      -4.0000      2.00000
     55      -3.9199      2.00000
     56      -3.8627      2.00000
[...]
  0.000   0.000   0.000   2.000   0.000   0.000   0.000   0.000   0.000   0.000   0.000   0.000   0.000   0.000   0.000   0.000
  0.000   0.000   0.000   0.000   2.000   0.000   0.000   0.000   0.000   0.000   0.000   0.000   0.000   0.000   0.000   0.000
  0.000   0.000   0.000   0.000   0.000   0.000   0.000   0.000   0.000   0.000   0.000   0.000   0.000   0.000   0.000   0.000
  0.000   0.000   0.000   0.000   0.000   0.000   0.000   0.000   0.000   0.000   0.000   0.000   0.000   0.000   0.000   0.000
  0.000   0.000   0.000   0.000   0.000   0.000   0.000   0.000   0.000   0.000   0.000   0.000   0.000   0.000   0.000   0.000
  0.000   0.000   0.000   0.000   0.000   0.000   0.000   0.000   0.000   0.000   0.000   0.000   0.000   0.000   0.000   0.000
  0.000   0.000   0.000   0.000   0.000   0.000   0.000   0.000   0.000   0.000   0.000   0.000   0.000   0.000   0.000   0.000
  0.000   0.000   0.000   0.000   0.000   0.000   0.000   0.000   0.000   0.000   1.000   0.000   0.000   0.000   0.000   0.000
  0.000   0.000   0.000   0.000   0.000   0.000   0.000   0.000   0.000   0.000   0.000   0.000   0.000   0.000   0.000   0.000
  0.000   0.000   0.000   0.000   0.000   0.000   0.000   0.000   0.000   0.000   0.000   0.000   0.000   0.000   0.000   0.000
  0.000   0.000   0.000   0.000   0.000   0.000   0.000   0.000   0.000   0.000   0.000   0.000   0.000   0.000   0.000   0.000
  0.000   0.000   0.000   0.000   0.000   0.000   0.000   0.000   0.000   0.000   0.000   0.000   0.000   0.000   0.000   0.000
  0.000   0.000   0.000   0.000   0.000   0.000   0.000   0.000   0.000   0.000   0.000   0.000   0.000   0.000   0.000   0.000
  0.000   0.000   0.000   0.000   0.000   0.000   0.000   0.000   0.000   0.000   0.000   0.000   0.000   0.000   0.000   0.000
  0.000   0.000   0.000   0.000   0.000   0.000   0.000   0.000   0.000   0.000   0.000   0.000   0.000   0.000   0.000   0.000


------------------------ aborting loop because EDIFF is reached ----------------------------------------





 total charge

# of ion       s       p       d       tot
------------------------------------------
    1        0.548   0.238   8.766   9.552
    2        0.543   0.241   8.766   9.549
    3        0.543   0.241   8.766   9.549
    4        0.543   0.241   8.766   9.549
    5        0.545   0.240   8.762   9.548
    6        0.543   0.241   8.766   9.549
    7        0.543   0.241   8.766   9.549
    8        0.543   0.241   8.766   9.549
    9        0.543   0.239   8.768   9.550
   10        0.530   0.306   8.765   9.600
   11        0.521   0.307   8.781   9.609
   12        0.530   0.306   8.765   9.600
   13        0.521   0.307   8.781   9.609
   14        0.521   0.307   8.781   9.609
   15        0.516   0.307   8.776   9.599
   16        0.530   0.306   8.765   9.600
   17        0.516   0.307   8.776   9.599
   18        0.516   0.307   8.776   9.599
   19        0.515   0.295   8.771   9.582
   20        0.573   0.350   8.720   9.643
   21        0.573   0.350   8.720   9.643
   22        0.506   0.305   8.781   9.592
   23        0.573   0.350   8.720   9.643
   24        0.506   0.305   8.781   9.592
   25        0.515   0.295   8.771   9.582
   26        0.515   0.295   8.771   9.582
   27        0.506   0.305   8.781   9.592
   28        0.539   0.225   8.754   9.518
   29        0.584   0.256   8.724   9.563
   30        0.584   0.256   8.724   9.563
   31        0.584   0.256   8.724   9.563
   32        0.584   0.256   8.724   9.563
   33        0.584   0.256   8.724   9.563
   34        0.584   0.256   8.724   9.563
   35        0.534   0.225   8.757   9.516
   36        0.568   0.401   3.773   4.742
--------------------------------------------------
tot         19.520  10.156 310.300 339.976
 
    CHARGE:  cpu time    0.6159: real time    0.6160
    FORLOC:  cpu time    0.0100: real time    0.0100
    FORNL :  cpu time    2.7388: real time    2.7389
    STRESS:  cpu time    8.4706: real time    8.4710
    FORCOR:  cpu time    0.0463: real time    0.0464
    FORHAR:  cpu time    0.0161: real time    0.0162
    OFIELD:  cpu time    0.0002: real time    0.0002

  FORCE on cell =-STRESS in cart. coord.  units (eV):
  Direction    XX          YY          ZZ          XY          YZ          ZX
  --------------------------------------------------------------------------------------
  Alpha Z  1002.30665  1002.30665  1002.30665
  Ewald  117123.05265117123.05303************    -0.00033    -0.00009    -0.00018
  Hartree125613.37990125613.37990************     0.00000    -0.00003    -0.00005
  E(xc)   -1752.58754 -1752.58753 -1760.57401    -0.00001     0.00000     0.00000
  Local  ************************255084.91583     0.00168     0.00005     0.00011
  n-local   -82.61771   -33.46117   -30.08432    23.76715    -1.42098     1.35502
  augment  2366.98517  2366.98661  2388.91610    -0.00125     0.00005     0.00008
  Kinetic  5406.19335  5415.80833  5482.66880     6.04076     0.06520     0.42013
  Fock        0.00000     0.00000     0.00000     0.00000     0.00000     0.00000
  -------------------------------------------------------------------------------------
  Total     -23.86729   -23.86729     3.43474    -0.00000     0.00000    -0.00000
  in kB     -25.60981   -25.60981     3.68551    -0.00000     0.00000    -0.00000
  external pressure =      -15.84 kB  Pullay stress =        0.00 kB


 VOLUME and BASIS-vectors are now :
 -----------------------------------------------------------------------------
  energy-cutoff  :      500.00
  volume of cell :     1493.16
      direct lattice vectors                 reciprocal lattice vectors
     8.813512802  0.000000000  0.000000000     0.113462137 -0.065507406  0.000000000
     4.406756909  7.632725690  0.000000000     0.000000000  0.131014796  0.000000000
     0.000000000  0.000000000 22.196203232     0.000000000  0.000000000  0.045052750

  length of vectors
     8.813512802  8.813512802 22.196203232     0.131014796  0.131014796  0.045052750


 FORCES acting on ions
    electron-ion (+dipol)            ewald-force                    non-local-force                 convergence-correction
 -----------------------------------------------------------------------------------------------
   -.197E-04 -.163E-04 0.245E+04   0.519E-04 0.433E-04 -.245E+04   0.631E-17 -.189E-17 -.892E+00   -.201E-03 -.129E-03 -.181E+00
   0.462E+00 -.187E+00 0.245E+04   -.678E+00 -.372E-01 -.245E+04   0.915E-01 0.145E+00 -.260E+00   0.109E+00 0.667E-01 -.208E+00
   -.462E+00 -.187E+00 0.245E+04   0.678E+00 -.372E-01 -.245E+04   -.915E-01 0.145E+00 -.260E+00   -.109E+00 0.687E-01 -.208E+00
   0.693E-01 0.493E+00 0.245E+04   -.371E+00 -.569E+00 -.245E+04   0.171E+00 0.687E-02 -.260E+00   0.112E+00 0.612E-01 -.208E+00
   0.740E-05 -.241E-04 0.245E+04   0.951E-04 0.175E-05 -.245E+04   -.454E-17 0.190E-17 0.596E-01   0.430E-02 0.262E-02 -.163E+00
   -.693E-01 0.493E+00 0.245E+04   0.371E+00 -.569E+00 -.245E+04   -.171E+00 0.687E-02 -.260E+00   -.114E+00 0.622E-01 -.207E+00
   -.393E+00 -.307E+00 0.245E+04   0.307E+00 0.606E+00 -.245E+04   0.796E-01 -.152E+00 -.260E+00   0.501E-02 -.129E+00 -.207E+00
   0.393E+00 -.307E+00 0.245E+04   -.307E+00 0.606E+00 -.245E+04   -.796E-01 -.152E+00 -.260E+00   -.312E-02 -.130E+00 -.207E+00
   0.198E-04 -.416E-04 0.245E+04   0.166E-03 -.200E-04 -.245E+04   -.868E-18 0.448E-18 -.490E+00   -.464E-02 -.240E-02 -.198E+00
   0.677E+01 0.391E+01 0.782E+03   -.630E+01 -.364E+01 -.781E+03   -.457E+00 -.264E+00 -.768E+00   -.952E-02 -.561E-02 0.152E+00
   0.141E-04 0.165E+01 0.787E+03   0.148E-03 -.171E+01 -.787E+03   0.731E-09 0.110E-01 -.577E-01   0.379E-02 -.163E-01 0.188E+00
   -.677E+01 0.391E+01 0.782E+03   0.630E+01 -.364E+01 -.781E+03   0.457E+00 -.264E+00 -.768E+00   0.822E-02 -.413E-02 0.151E+00
   0.143E+01 -.827E+00 0.787E+03   -.148E+01 0.854E+00 -.787E+03   0.951E-02 -.549E-02 -.577E-01   -.119E-01 0.117E-01 0.188E+00
   -.143E+01 -.827E+00 0.787E+03   0.148E+01 0.854E+00 -.787E+03   -.951E-02 -.549E-02 -.577E-01   0.198E-01 0.113E-01 0.188E+00
   0.318E-04 0.578E+01 0.788E+03   0.235E-03 -.597E+01 -.787E+03   0.162E-08 0.243E-01 -.540E+00   -.239E-02 0.808E-01 0.178E+00
   -.212E-04 -.782E+01 0.782E+03   0.163E-03 0.727E+01 -.781E+03   0.351E-07 0.527E+00 -.768E+00   0.296E-03 0.916E-02 0.151E+00
   0.501E+01 -.289E+01 0.788E+03   -.517E+01 0.298E+01 -.787E+03   0.210E-01 -.121E-01 -.540E+00   0.690E-01 -.420E-01 0.178E+00
   -.501E+01 -.289E+01 0.788E+03   0.517E+01 0.298E+01 -.787E+03   -.210E-01 -.121E-01 -.540E+00   -.691E-01 -.401E-01 0.178E+00
   -.431E-04 0.183E+01 -.913E+03   0.560E-04 -.183E+01 0.912E+03   -.300E-08 -.451E-01 0.434E+00   -.227E-03 0.490E-01 0.613E+00
   -.739E+01 -.426E+01 -.885E+03   0.825E+01 0.476E+01 0.886E+03   -.985E+00 -.569E+00 -.131E+01   0.121E+00 0.698E-01 0.777E+00
   0.739E+01 -.426E+01 -.885E+03   -.825E+01 0.476E+01 0.886E+03   0.985E+00 -.569E+00 -.131E+01   -.120E+00 0.719E-01 0.777E+00
   -.150E+02 0.865E+01 -.892E+03   0.145E+02 -.838E+01 0.891E+03   0.481E+00 -.278E+00 0.567E+00   0.478E-02 -.708E-02 0.563E+00
   -.983E-05 0.853E+01 -.885E+03   0.138E-03 -.952E+01 0.886E+03   0.757E-07 0.114E+01 -.131E+01   0.177E-02 -.140E+00 0.777E+00
   0.150E+02 0.865E+01 -.892E+03   -.145E+02 -.838E+01 0.891E+03   -.481E+00 -.278E+00 0.567E+00   -.117E-01 -.668E-02 0.562E+00
   -.159E+01 -.916E+00 -.913E+03   0.159E+01 0.916E+00 0.912E+03   0.390E-01 0.225E-01 0.434E+00   -.408E-01 -.236E-01 0.612E+00
   0.159E+01 -.916E+00 -.913E+03   -.159E+01 0.916E+00 0.912E+03   -.390E-01 0.225E-01 0.434E+00   0.427E-01 -.247E-01 0.613E+00
   0.956E-05 -.173E+02 -.892E+03   0.199E-03 0.168E+02 0.891E+03   0.370E-07 0.556E+00 0.567E+00   -.429E-02 0.764E-02 0.563E+00
   -.107E-04 -.108E-04 -.246E+04   0.282E-04 0.305E-04 0.246E+04   -.223E-18 0.274E-17 0.454E+00   0.135E-02 0.767E-03 0.382E+00
   0.903E+00 -.238E+01 -.248E+04   0.271E+00 0.420E+01 0.248E+04   -.132E+01 -.202E+01 -.368E+00   0.146E+00 0.202E+00 0.370E+00
   -.903E+00 -.238E+01 -.248E+04   -.271E+00 0.420E+01 0.248E+04   0.132E+01 -.202E+01 -.368E+00   -.152E+00 0.203E+00 0.371E+00
   -.161E+01 0.197E+01 -.248E+04   0.377E+01 -.187E+01 0.248E+04   -.241E+01 -.136E+00 -.368E+00   0.247E+00 0.252E-01 0.370E+00
   0.161E+01 0.197E+01 -.248E+04   -.377E+01 -.187E+01 0.248E+04   0.241E+01 -.136E+00 -.368E+00   -.255E+00 0.263E-01 0.370E+00
   -.251E+01 0.407E+00 -.248E+04   0.350E+01 -.234E+01 0.248E+04   -.109E+01 0.216E+01 -.368E+00   0.100E+00 -.233E+00 0.371E+00
   0.251E+01 0.407E+00 -.248E+04   -.350E+01 -.234E+01 0.248E+04   0.109E+01 0.216E+01 -.368E+00   -.104E+00 -.234E+00 0.370E+00
   0.345E-04 -.332E-04 -.246E+04   0.142E-03 -.463E-04 0.246E+04   -.244E-17 0.277E-17 0.672E+00   -.353E-02 -.174E-02 0.422E+00
   -.247E-04 0.222E-06 -.128E+04   0.638E-04 0.589E-05 0.128E+04   -.240E-17 -.468E-18 0.271E+01   0.115E-02 0.674E-03 0.304E+00
 -----------------------------------------------------------------------------------------------
   -.820E-03 -.776E-03 -.231E+01   -.263E-13 -.426E-13 0.000E+00   -.449E-15 0.446E-15 -.627E+01   -.171E-01 -.933E-02 0.895E+01
 
 
 POSITION                                       TOTAL-FORCE (eV/Angst)
 -----------------------------------------------------------------------------------
      0.00000      0.00000      5.28038        -0.000000     -0.000000     -0.176430
      2.93784      0.00000      5.28038        -0.015111     -0.011426     -0.073731
      5.87568      0.00000      5.28038         0.015111     -0.011426     -0.073731
      1.46892      2.54424      5.28038        -0.017451     -0.007374     -0.073731
      4.40676      2.54424      5.28038        -0.000000     -0.000000     -0.096116
      7.34459      2.54424      5.28038         0.017451     -0.007374     -0.073731
      2.93784      5.08848      5.28038        -0.002340      0.018800     -0.073731
      5.87568      5.08848      5.28038         0.002340      0.018800     -0.073731
      8.81351      5.08848      5.28038        -0.000000     -0.000000     -0.087958
      1.46892      0.84808      7.67911         0.008969      0.005178      0.163935
      4.40676      0.84808      7.67911        -0.000000     -0.061859     -0.014901
      7.34459      0.84808      7.67911        -0.008969      0.005178      0.163935
      2.93784      3.39232      7.67911        -0.053571      0.030929     -0.014901
      5.87568      3.39232      7.67911         0.053571      0.030929     -0.014901
      8.81351      3.39232      7.67911        -0.000000     -0.078813      0.096142
      4.40676      5.93656      7.67911        -0.000000     -0.010356      0.163935
      7.34459      5.93656      7.67911        -0.068254      0.039407      0.096142
     10.28243      5.93656      7.67911         0.068254      0.039407      0.096142
      8.81351      1.70807     10.10081         0.000000      0.002838      0.003364
      2.93151      1.69251     10.04012        -0.003759     -0.002170     -0.012923
      5.88200      1.69251     10.04012         0.003759     -0.002170     -0.012923
     10.26425      4.25090     10.06644         0.006066     -0.003502     -0.001574
      4.40676      4.24770     10.04012         0.000000      0.004340     -0.012923
      7.36277      4.25090     10.06644        -0.006066     -0.003502     -0.001574
     11.74104      6.77869     10.10081        -0.002458     -0.001419      0.003364
      5.88599      6.77869     10.10081         0.002458     -0.001419      0.003364
      8.81351      6.76365     10.06644         0.000000      0.007005     -0.001574
      0.00000      0.00000     12.49922        -0.000000     -0.000000     -0.012212
      2.99894      0.10048     12.55446        -0.000761      0.004385      0.013359
      5.81457      0.10048     12.55446         0.000761      0.004385      0.013359
      1.58649      2.54692     12.55446         0.003417     -0.002852      0.013359
      7.22703      2.54692     12.55446        -0.003417     -0.002852      0.013359
      2.99430      4.98533     12.55446         0.004179     -0.001533      0.013359
      5.81921      4.98533     12.55446        -0.004179     -0.001533      0.013359
      8.81351      5.08848     12.49869        -0.000000     -0.000000      0.009396
      4.40676      2.54424     12.18560        -0.000000     -0.000000      0.023424
 -----------------------------------------------------------------------------------
    total drift:                               -0.017945     -0.010103      0.369911


--------------------------------------------------------------------------------------------------------



  FREE ENERGIE OF THE ION-ELECTRON SYSTEM (eV)
  ---------------------------------------------------
  free  energy   TOTEN  =      -116.88067167 eV

  energy  without entropy=     -116.88067167  energy(sigma->0) =     -116.88067167
 


--------------------------------------------------------------------------------------------------------


    POTLOK:  cpu time    0.0598: real time    0.0598


--------------------------------------------------------------------------------------------------------


 stress matrix after NEB project (eV)
    -23.86729     -0.00000     -0.00000
     -0.00000    -23.86729      0.00000
     -0.00000      0.00000      3.43474
  FORCES: max atom, RMS     0.023424    0.008734
  FORCE total and by dimension    0.052402    0.023424
  Stress total and by dimension   33.927760   23.867295
     LOOP+:  cpu time  108.6197: real time  108.7141
 -----------------------------------------------------------------------------
|                                                                             |
|           W    W    AA    RRRRR   N    N  II  N    N   GGGG   !!!           |
|           W    W   A  A   R    R  NN   N  II  NN   N  G    G  !!!           |
|           W    W  A    A  R    R  N N  N  II  N N  N  G       !!!           |
|           W WW W  AAAAAA  RRRRR   N  N N  II  N  N N  G  GGG   !            |
|           WW  WW  A    A  R   R   N   NN  II  N   NN  G    G                |
|           W    W  A    A  R    R  N    N  II  N    N   GGGG   !!!           |
|                                                                             |
|     Tetrahedron method does not include variations of the Fermi             |
|     occupations, so forces and stress will be inaccurate. We suggest        |
|     using a different smearing scheme ISMEAR = 1 or 2 for metals in         |
|     relaxations.                                                            |
|                                                                             |
 -----------------------------------------------------------------------------

    4ORBIT:  cpu time    0.0000: real time    0.0000



 total charge

# of ion       s       p       d       tot
------------------------------------------
    1        0.548   0.238   8.766   9.552
    2        0.543   0.241   8.766   9.549
    3        0.543   0.241   8.766   9.549
    4        0.543   0.241   8.766   9.549
    5        0.545   0.240   8.762   9.548
    6        0.543   0.241   8.766   9.549
    7        0.543   0.241   8.766   9.549
    8        0.543   0.241   8.766   9.549
    9        0.543   0.239   8.768   9.550
   10        0.530   0.306   8.765   9.600
   11        0.521   0.307   8.781   9.609
   12        0.530   0.306   8.765   9.600
   13        0.521   0.307   8.781   9.609
   14        0.521   0.307   8.781   9.609
   15        0.516   0.307   8.776   9.599
   16        0.530   0.306   8.765   9.600
   17        0.516   0.307   8.776   9.599
   18        0.516   0.307   8.776   9.599
   19        0.515   0.295   8.771   9.582
   20        0.573   0.350   8.720   9.643
   21        0.573   0.350   8.720   9.643
   22        0.506   0.305   8.781   9.592
   23        0.573   0.350   8.720   9.643
   24        0.506   0.305   8.781   9.592
   25        0.515   0.295   8.771   9.582
   26        0.515   0.295   8.771   9.582
   27        0.506   0.305   8.781   9.592
   28        0.539   0.225   8.754   9.518
   29        0.584   0.256   8.724   9.563
   30        0.584   0.256   8.724   9.563
   31        0.584   0.256   8.724   9.563
   32        0.584   0.256   8.724   9.563
   33        0.584   0.256   8.724   9.563
   34        0.584   0.256   8.724   9.563
   35        0.534   0.225   8.757   9.516
   36        0.568   0.401   3.773   4.742
--------------------------------------------------
tot         19.520  10.156 310.300 339.976
 
 BZINTS: Fermi energy:    0.715478;  391.000000 electrons
         Band energy:-0.118362E+04;  BLOECHL correction:   -0.028553

 total amount of memory used by VASP MPI-rank0   121700. kBytes
=======================================================================

   base      :      30000. kBytes
   nonlr-proj:      14112. kBytes
   fftplans  :       4330. kBytes
   grid      :      17098. kBytes
   one-center:        559. kBytes
   wavefun   :      55601. kBytes
 
  
  
 General timing and accounting informations for this job:
 ========================================================
  
                  Total CPU time used (sec):      116.263
                            User time (sec):      112.710
                          System time (sec):        3.554
                         Elapsed time (sec):      116.841
  
                   Maximum memory used (kb):      381204.
                   Average memory used (kb):          N/A
  
                          Minor page faults:        69830
                          Major page faults:            0
                 Voluntary context switches:         7784
