PROCAR new format
# of k-points:   10         # of bands:  252         # of ions:   36

 k-point     1 :    0.00000000 0.00000000 0.00000000     weight = 0.01562500

band     1 # energy   -8.12110215 # occ.  2.00000000
 
ion      s      p      d    tot
    1  0.006  0.001  0.000  0.007
    2  0.006  0.000  0.000  0.007
    3  0.006  0.000  0.000  0.007
    4  0.006  0.000  0.000  0.007
    5  0.006  0.001  0.000  0.007
    6  0.006  0.000  0.000  0.007
    7  0.006  0.000  0.000  0.007
    8  0.006  0.000  0.000  0.007
    9  0.006  0.000  0.000  0.006
   10  0.025  0.000  0.000  0.025
   11  0.026  0.000  0.000  0.026
   12  0.025  0.000  0.000  0.025
   13  0.026  0.000  0.000  0.026
   14  0.026  0.000  0.000  0.026
   15  0.024  0.000  0.000  0.025
   16  0.025  0.000  0.000  0.025
   17  0.024  0.000  0.000  0.025
   18  0.024  0.000  0.000  0.025
   19  0.022  0.000  0.000  0.023
   20  0.030  0.000  0.000  0.030
   21  0.030  0.000  0.000  0.030
   22  0.024  0.000  0.000  0.025
   23  0.030  0.000  0.000  0.030
   24  0.024  0.000  0.000  0.025
   25  0.022  0.000  0.000  0.023
   26  0.022  0.000  0.000  0.023
   27  0.024  0.000  0.000  0.025
   28  0.005  0.000  0.000  0.005
   29  0.006  0.000  0.000  0.006
   30  0.006  0.000  0.000  0.006
   31  0.006  0.000  0.000  0.006
   32  0.006  0.000  0.000  0.006
   33  0.006  0.000  0.000  0.006
   34  0.006  0.000  0.000  0.006
   35  0.005  0.000  0.000  0.006
   36  0.014  0.001  0.000  0.015
tot    0.568  0.012  0.004  0.584
 
band     2 # energy   -6.99763855 # occ.  2.00000000
 
ion      s      p      d    tot
    1  0.016  0.000  0.001  0.017
    2  0.016  0.000  0.001  0.017
    3  0.016  0.000  0.001  0.017
    4  0.016  0.000  0.001  0.017
    5  0.015  0.000  0.001  0.017
    6  0.016  0.000  0.001  0.017
    7  0.016  0.000  0.001  0.017
    8  0.016  0.000  0.001  0.017
    9  0.016  0.001  0.001  0.018
   10  0.012  0.001  0.002  0.016
   11  0.011  0.001  0.002  0.015
   12  0.012  0.001  0.002  0.016
   13  0.011  0.001  0.002  0.015
   14  0.011  0.001  0.002  0.015
   15  0.013  0.001  0.002  0.016
   16  0.012  0.001  0.002  0.016
   17  0.013  0.001  0.002  0.016
   18  0.013  0.001  0.002  0.016
   19  0.009  0.001  0.003  0.012
   20  0.015  0.002  0.002  0.018
   21  0.015  0.002  0.002  0.018
   22  0.009  0.001  0.003  0.013
   23  0.015  0.002  0.002  0.018
   24  0.009  0.001  0.003  0.013
   25  0.009  0.001  0.003  0.012
   26  0.009  0.001  0.003  0.012
   27  0.009  0.001  0.003  0.013
   28  0.013  0.000  0.001  0.014
   29  0.017  0.001  0.002  0.019
   30  0.017  0.001  0.002  0.019
   31  0.017  0.001  0.002  0.019
   32  0.017  0.001  0.002  0.019
   33  0.017  0.001  0.002  0.019
   34  0.017  0.001  0.002  0.019
   35  0.013  0.000  0.001  0.014
   36  0.036  0.001  0.001  0.037
tot    0.509  0.033  0.063  0.605
 
band     3 # energy   -6.07064392 # occ.  2.00000000
 
ion      s      p      d    tot
    1  0.012  0.000  0.001  0.013
    2  0.005  0.000  0.004  0.009
    3  0.005  0.000  0.004  0.009
    4  0.005  0.000  0.004  0.009
    5  0.008  0.000  0.003  0.011
    6  0.005  0.000  0.004  0.009
    7  0.005  0.000  0.004  0.009
    8  0.005  0.000  0.004  0.009
    9  0.000  0.000  0.005  0.005
   10  0.001  0.001  0.009  0.010
   11  0.001  0.001  0.004  0.005
   12  0.001  0.001  0.009  0.010
   13  0.001  0.001  0.004  0.005
   14  0.001  0.001  0.004  0.005
   15  0.010  0.002  0.002  0.014
   16  0.001  0.001  0.009  0.010
   17  0.010  0.002  0.002  0.014
   18  0.010  0.002  0.002  0.014
   19  0.011  0.000  0.014  0.026
   20  0.001  0.001  0.031  0.033
   21  0.001  0.001  0.031  0.033
   22  0.023  0.002  0.008  0.033
   23  0.001  0.001  0.031  0.033
   24  0.023  0.002  0.008  0.033
   25  0.011  0.000  0.014  0.026
   26  0.011  0.000  0.014  0.026
   27  0.023  0.002  0.008  0.033
   28  0.003  0.000  0.012  0.016
   29  0.013  0.001  0.016  0.030
   30  0.013  0.001  0.016  0.030
   31  0.013  0.001  0.016  0.030
   32  0.013  0.001  0.016  0.030
   33  0.013  0.001  0.016  0.030
   34  0.013  0.001  0.016  0.030
   35  0.002  0.001  0.011  0.013
   36  0.061  0.000  0.007  0.069
tot    0.336  0.028  0.358  0.722
 
band     4 # energy   -6.00122181 # occ.  2.00000000
 
ion      s      p      d    tot
    1  0.000  0.001  0.010  0.010
    2  0.006  0.000  0.007  0.013
    3  0.006  0.000  0.007  0.013
    4  0.006  0.000  0.007  0.013
    5  0.003  0.000  0.004  0.006
    6  0.006  0.000  0.007  0.013
    7  0.006  0.000  0.007  0.013
    8  0.006  0.000  0.007  0.013
    9  0.025  0.001  0.002  0.028
   10  0.011  0.001  0.015  0.027
   11  0.008  0.002  0.008  0.019
   12  0.011  0.001  0.015  0.027
   13  0.008  0.002  0.008  0.019
   14  0.008  0.002  0.008  0.018
   15  0.009  0.001  0.009  0.018
   16  0.011  0.001  0.015  0.027
   17  0.009  0.001  0.009  0.018
   18  0.009  0.001  0.009  0.018
   19  0.000  0.001  0.017  0.018
   20  0.024  0.002  0.019  0.044
   21  0.024  0.002  0.019  0.044
   22  0.008  0.002  0.005  0.014
   23  0.024  0.002  0.019  0.044
   24  0.008  0.002  0.005  0.014
   25  0.000  0.001  0.017  0.018
   26  0.000  0.001  0.017  0.018
   27  0.008  0.002  0.005  0.014
   28  0.010  0.000  0.002  0.012
   29  0.008  0.000  0.008  0.016
   30  0.008  0.000  0.008  0.016
   31  0.008  0.000  0.008  0.016
   32  0.008  0.000  0.008  0.016
   33  0.008  0.000  0.008  0.016
   34  0.008  0.000  0.008  0.016
   35  0.022  0.000  0.003  0.026
   36  0.001  0.005  0.012  0.017
tot    0.321  0.034  0.340  0.695
 
band     5 # energy   -5.99039107 # occ.  2.00000000
 
ion      s      p      d    tot
    1  0.000  0.000  0.008  0.008
    2  0.002  0.001  0.003  0.006
    3  0.005  0.001  0.003  0.008
    4  0.004  0.001  0.003  0.008
    5  0.000  0.001  0.006  0.007
    6  0.001  0.000  0.002  0.003
    7  0.006  0.001  0.003  0.010
    8  0.000  0.000  0.003  0.003
    9  0.000  0.000  0.001  0.001
   10  0.001  0.000  0.031  0.032
   11  0.029  0.002  0.016  0.047
   12  0.031  0.002  0.009  0.042
   13  0.041  0.001  0.013  0.055
   14  0.001  0.004  0.024  0.029
   15  0.001  0.001  0.008  0.010
   16  0.022  0.001  0.016  0.039
   17  0.001  0.001  0.010  0.011
   18  0.000  0.003  0.005  0.008
   19  0.006  0.002  0.009  0.017
   20  0.001  0.002  0.035  0.039
   21  0.059  0.001  0.016  0.077
   22  0.014  0.001  0.008  0.022
   23  0.042  0.001  0.022  0.066
   24  0.000  0.000  0.026  0.026
   25  0.000  0.004  0.003  0.007
   26  0.009  0.001  0.012  0.021
   27  0.010  0.001  0.013  0.024
   28  0.000  0.000  0.001  0.001
   29  0.000  0.000  0.003  0.003
   30  0.006  0.001  0.005  0.012
   31  0.000  0.000  0.002  0.003
   32  0.006  0.001  0.005  0.012
   33  0.004  0.001  0.004  0.009
   34  0.005  0.001  0.004  0.010
   35  0.000  0.000  0.004  0.005
   36  0.000  0.004  0.011  0.015
tot    0.307  0.044  0.345  0.696
 
band     6 # energy   -5.99039010 # occ.  2.00000000
 
ion      s      p      d    tot
    1  0.000  0.000  0.008  0.008
    2  0.004  0.001  0.002  0.007
    3  0.001  0.000  0.003  0.005
    4  0.002  0.000  0.002  0.005
    5  0.000  0.001  0.006  0.007
    6  0.005  0.001  0.003  0.009
    7  0.000  0.000  0.003  0.003
    8  0.006  0.001  0.003  0.010
    9  0.000  0.000  0.001  0.001
   10  0.034  0.002  0.006  0.043
   11  0.018  0.003  0.019  0.040
   12  0.005  0.000  0.028  0.033
   13  0.006  0.003  0.022  0.032
   14  0.046  0.001  0.011  0.058
   15  0.000  0.002  0.007  0.009
   16  0.014  0.001  0.022  0.036
   17  0.000  0.003  0.005  0.008
   18  0.001  0.000  0.011  0.012
   19  0.004  0.003  0.007  0.013
   20  0.067  0.001  0.014  0.082
   21  0.009  0.002  0.033  0.044
   22  0.002  0.001  0.023  0.026
   23  0.027  0.002  0.027  0.056
   24  0.015  0.002  0.005  0.022
   25  0.010  0.000  0.013  0.023
   26  0.001  0.004  0.004  0.009
   27  0.006  0.001  0.018  0.025
   28  0.000  0.000  0.001  0.001
   29  0.007  0.001  0.005  0.013
   30  0.001  0.000  0.003  0.004
   31  0.007  0.001  0.005  0.014
   32  0.001  0.000  0.003  0.004
   33  0.003  0.001  0.004  0.007
   34  0.003  0.001  0.003  0.007
   35  0.000  0.000  0.004  0.005
   36  0.000  0.004  0.011  0.015
tot    0.307  0.044  0.345  0.696
 
band     7 # energy   -5.95303861 # occ.  2.00000000
 
ion      s      p      d    tot
    1  0.022  0.000  0.012  0.033
    2  0.012  0.000  0.014  0.026
    3  0.012  0.000  0.014  0.026
    4  0.012  0.000  0.014  0.026
    5  0.008  0.000  0.016  0.024
    6  0.012  0.000  0.014  0.026
    7  0.012  0.000  0.014  0.026
    8  0.012  0.000  0.014  0.026
    9  0.009  0.000  0.013  0.022
   10  0.001  0.000  0.030  0.031
   11  0.010  0.000  0.023  0.033
   12  0.001  0.000  0.030  0.031
   13  0.010  0.000  0.023  0.033
   14  0.010  0.000  0.023  0.033
   15  0.012  0.001  0.021  0.034
   16  0.001  0.000  0.030  0.031
   17  0.012  0.001  0.021  0.034
   18  0.012  0.001  0.021  0.034
   19  0.007  0.000  0.010  0.017
   20  0.005  0.000  0.023  0.027
   21  0.005  0.000  0.023  0.027
   22  0.000  0.000  0.014  0.014
   23  0.005  0.000  0.023  0.027
   24  0.000  0.000  0.014  0.014
   25  0.007  0.000  0.010  0.017
   26  0.007  0.000  0.010  0.017
   27  0.000  0.000  0.014  0.014
   28  0.000  0.000  0.002  0.002
   29  0.002  0.000  0.003  0.005
   30  0.002  0.000  0.003  0.005
   31  0.002  0.000  0.003  0.005
   32  0.002  0.000  0.003  0.005
   33  0.002  0.000  0.003  0.005
   34  0.002  0.000  0.003  0.005
   35  0.005  0.000  0.001  0.006
   36  0.000  0.001  0.006  0.007
tot    0.231  0.007  0.516  0.753
 
band     8 # energy   -5.90353128 # occ.  2.00000000
 
ion      s      p      d    tot
    1  0.006  0.001  0.002  0.009
    2  0.000  0.001  0.006  0.008
    3  0.000  0.001  0.006  0.008
    4  0.000  0.001  0.006  0.008
    5  0.020  0.002  0.000  0.022
    6  0.000  0.001  0.006  0.008
    7  0.000  0.001  0.006  0.008
    8  0.000  0.001  0.006  0.008
    9  0.000  0.000  0.003  0.003
   10  0.025  0.003  0.001  0.029
   11  0.019  0.001  0.023  0.043
   12  0.025  0.003  0.001  0.029
   13  0.019  0.001  0.023  0.043
   14  0.019  0.001  0.023  0.043
   15  0.001  0.001  0.024  0.026
   16  0.025  0.003  0.001  0.029
   17  0.001  0.001  0.024  0.026
   18  0.001  0.001  0.024  0.026
   19  0.020  0.002  0.008  0.029
   20  0.007  0.003  0.016  0.026
   21  0.007  0.003  0.016  0.026
   22  0.009  0.000  0.026  0.034
   23  0.007  0.003  0.016  0.026
   24  0.009  0.000  0.026  0.034
   25  0.020  0.002  0.008  0.029
   26  0.020  0.002  0.008  0.029
   27  0.009  0.000  0.026  0.034
   28  0.015  0.001  0.000  0.017
   29  0.001  0.000  0.005  0.005
   30  0.001  0.000  0.005  0.005
   31  0.001  0.000  0.005  0.005
   32  0.001  0.000  0.005  0.005
   33  0.001  0.000  0.005  0.005
   34  0.001  0.000  0.005  0.005
   35  0.002  0.001  0.004  0.007
   36  0.000  0.000  0.000  0.000
tot    0.291  0.038  0.369  0.697
 
band     9 # energy   -5.89137297 # occ.  2.00000000
 
ion      s      p      d    tot
    1  0.000  0.001  0.003  0.004
    2  0.004  0.001  0.004  0.009
    3  0.008  0.001  0.004  0.013
    4  0.004  0.001  0.004  0.009
    5  0.000  0.000  0.005  0.005
    6  0.001  0.000  0.003  0.004
    7  0.008  0.001  0.004  0.013
    8  0.001  0.000  0.003  0.004
    9  0.000  0.001  0.011  0.012
   10  0.024  0.000  0.016  0.041
   11  0.002  0.001  0.021  0.024
   12  0.006  0.004  0.006  0.016
   13  0.002  0.001  0.021  0.025
   14  0.009  0.001  0.007  0.018
   15  0.016  0.001  0.033  0.050
   16  0.006  0.003  0.007  0.016
   17  0.015  0.001  0.034  0.050
   18  0.063  0.002  0.006  0.071
   19  0.010  0.001  0.027  0.038
   20  0.000  0.001  0.014  0.016
   21  0.000  0.002  0.012  0.014
   22  0.009  0.003  0.015  0.027
   23  0.000  0.002  0.012  0.014
   24  0.036  0.001  0.011  0.048
   25  0.039  0.002  0.003  0.044
   26  0.009  0.001  0.028  0.038
   27  0.009  0.003  0.015  0.028
   28  0.000  0.000  0.006  0.007
   29  0.000  0.000  0.002  0.002
   30  0.002  0.000  0.002  0.005
   31  0.000  0.000  0.002  0.002
   32  0.004  0.001  0.003  0.008
   33  0.002  0.000  0.002  0.004
   34  0.004  0.001  0.003  0.008
   35  0.000  0.001  0.004  0.005
   36  0.000  0.000  0.001  0.001
tot    0.297  0.041  0.355  0.693
 
band    10 # energy   -5.89134429 # occ.  2.00000000
 
ion      s      p      d    tot
    1  0.000  0.001  0.003  0.004
    2  0.004  0.001  0.003  0.009
    3  0.001  0.000  0.004  0.005
    4  0.004  0.001  0.003  0.008
    5  0.000  0.000  0.005  0.005
    6  0.008  0.001  0.004  0.014
    7  0.001  0.000  0.004  0.005
    8  0.008  0.001  0.004  0.014
    9  0.000  0.001  0.011  0.012
   10  0.000  0.005  0.003  0.008
   11  0.007  0.001  0.012  0.020
   12  0.019  0.001  0.013  0.033
   13  0.007  0.001  0.012  0.020
   14  0.000  0.001  0.025  0.027
   15  0.047  0.001  0.015  0.064
   16  0.018  0.001  0.013  0.032
   17  0.048  0.001  0.015  0.064
   18  0.000  0.001  0.042  0.043
   19  0.029  0.002  0.011  0.042
   20  0.000  0.002  0.011  0.013
   21  0.000  0.001  0.014  0.015
   22  0.027  0.001  0.013  0.041
   23  0.000  0.001  0.014  0.015
   24  0.000  0.004  0.017  0.020
   25  0.000  0.000  0.035  0.036
   26  0.029  0.002  0.011  0.042
   27  0.027  0.001  0.013  0.041
   28  0.000  0.000  0.006  0.007
   29  0.004  0.001  0.002  0.007
   30  0.002  0.000  0.003  0.005
   31  0.004  0.001  0.002  0.007
   32  0.000  0.000  0.001  0.002
   33  0.002  0.000  0.003  0.005
   34  0.000  0.000  0.001  0.002
   35  0.000  0.001  0.004  0.005
   36  0.000  0.000  0.001  0.001
tot    0.297  0.041  0.355  0.693
 
band    11 # energy   -5.50690144 # occ.  2.00000000
 
ion      s      p      d    tot
    1  0.009  0.001  0.000  0.010
    2  0.000  0.001  0.005  0.006
    3  0.000  0.001  0.005  0.006
    4  0.000  0.001  0.005  0.006
    5  0.010  0.001  0.001  0.012
    6  0.000  0.001  0.005  0.006
    7  0.000  0.001  0.005  0.006
    8  0.000  0.001  0.005  0.006
    9  0.000  0.000  0.001  0.001
   10  0.001  0.001  0.019  0.021
   11  0.011  0.002  0.007  0.020
   12  0.001  0.001  0.019  0.021
   13  0.011  0.002  0.007  0.020
   14  0.010  0.002  0.007  0.019
   15  0.004  0.000  0.033  0.038
   16  0.001  0.001  0.019  0.021
   17  0.004  0.000  0.033  0.038
   18  0.004  0.000  0.034  0.039
   19  0.012  0.002  0.005  0.018
   20  0.002  0.001  0.036  0.040
   21  0.002  0.001  0.036  0.039
   22  0.005  0.000  0.040  0.045
   23  0.002  0.001  0.036  0.039
   24  0.004  0.001  0.039  0.044
   25  0.012  0.002  0.005  0.018
   26  0.012  0.002  0.005  0.018
   27  0.005  0.000  0.040  0.045
   28  0.022  0.002  0.000  0.023
   29  0.000  0.001  0.014  0.015
   30  0.000  0.001  0.014  0.015
   31  0.000  0.001  0.014  0.015
   32  0.001  0.001  0.014  0.015
   33  0.000  0.001  0.014  0.015
   34  0.001  0.001  0.014  0.015
   35  0.001  0.000  0.003  0.005
   36  0.024  0.003  0.000  0.027
tot    0.171  0.035  0.543  0.750
 
band    12 # energy   -5.50300220 # occ.  2.00000000
 
ion      s      p      d    tot
    1  0.000  0.001  0.004  0.004
    2  0.001  0.001  0.005  0.006
    3  0.009  0.001  0.004  0.015
    4  0.001  0.001  0.005  0.006
    5  0.000  0.001  0.009  0.011
    6  0.004  0.001  0.003  0.008
    7  0.009  0.001  0.004  0.015
    8  0.004  0.001  0.003  0.008
    9  0.000  0.000  0.008  0.008
   10  0.000  0.001  0.048  0.049
   11  0.018  0.001  0.019  0.038
   12  0.006  0.001  0.018  0.026
   13  0.018  0.001  0.019  0.038
   14  0.000  0.000  0.048  0.048
   15  0.002  0.000  0.019  0.021
   16  0.006  0.001  0.018  0.026
   17  0.002  0.000  0.019  0.021
   18  0.000  0.001  0.011  0.012
   19  0.003  0.000  0.017  0.020
   20  0.000  0.000  0.085  0.085
   21  0.014  0.001  0.026  0.042
   22  0.004  0.001  0.018  0.024
   23  0.014  0.001  0.026  0.042
   24  0.000  0.001  0.032  0.032
   25  0.000  0.001  0.009  0.010
   26  0.003  0.000  0.017  0.020
   27  0.004  0.001  0.018  0.024
   28  0.000  0.000  0.008  0.008
   29  0.005  0.001  0.006  0.012
   30  0.010  0.001  0.006  0.017
   31  0.005  0.001  0.006  0.012
   32  0.001  0.000  0.004  0.005
   33  0.010  0.001  0.006  0.017
   34  0.001  0.000  0.004  0.005
   35  0.000  0.000  0.002  0.003
   36  0.000  0.004  0.010  0.014
tot    0.153  0.032  0.566  0.752
 
band    13 # energy   -5.50296979 # occ.  2.00000000
 
ion      s      p      d    tot
    1  0.000  0.001  0.004  0.004
    2  0.008  0.001  0.003  0.013
    3  0.000  0.000  0.004  0.005
    4  0.008  0.001  0.003  0.013
    5  0.000  0.001  0.009  0.011
    6  0.005  0.001  0.005  0.011
    7  0.000  0.000  0.004  0.005
    8  0.005  0.001  0.005  0.011
    9  0.000  0.000  0.008  0.008
   10  0.009  0.002  0.008  0.018
   11  0.006  0.000  0.038  0.045
   12  0.002  0.001  0.038  0.041
   13  0.006  0.000  0.038  0.045
   14  0.024  0.001  0.009  0.035
   15  0.001  0.001  0.014  0.016
   16  0.002  0.001  0.038  0.041
   17  0.001  0.001  0.014  0.016
   18  0.003  0.000  0.020  0.023
   19  0.001  0.001  0.012  0.014
   20  0.019  0.001  0.006  0.027
   21  0.005  0.000  0.066  0.071
   22  0.001  0.001  0.027  0.029
   23  0.005  0.000  0.066  0.071
   24  0.005  0.002  0.015  0.021
   25  0.004  0.000  0.020  0.024
   26  0.001  0.001  0.012  0.013
   27  0.001  0.001  0.027  0.029
   28  0.000  0.000  0.008  0.008
   29  0.005  0.001  0.004  0.011
   30  0.001  0.000  0.005  0.006
   31  0.005  0.001  0.004  0.011
   32  0.009  0.001  0.007  0.017
   33  0.001  0.000  0.005  0.006
   34  0.009  0.001  0.007  0.017
   35  0.000  0.000  0.002  0.003
   36  0.000  0.004  0.010  0.014
tot    0.153  0.032  0.566  0.752
 
band    14 # energy   -5.47113614 # occ.  2.00000000
 
ion      s      p      d    tot
    1  0.005  0.001  0.003  0.009
    2  0.000  0.001  0.009  0.010
    3  0.000  0.001  0.009  0.010
    4  0.000  0.001  0.009  0.010
    5  0.007  0.000  0.001  0.008
    6  0.000  0.001  0.009  0.010
    7  0.000  0.001  0.009  0.010
    8  0.000  0.001  0.009  0.010
    9  0.022  0.002  0.001  0.026
   10  0.009  0.001  0.033  0.043
   11  0.000  0.000  0.042  0.042
   12  0.009  0.001  0.033  0.043
   13  0.000  0.000  0.042  0.042
   14  0.000  0.000  0.042  0.042
   15  0.013  0.002  0.007  0.022
   16  0.009  0.001  0.033  0.043
   17  0.013  0.002  0.007  0.022
   18  0.013  0.002  0.007  0.022
   19  0.000  0.000  0.026  0.027
   20  0.006  0.001  0.038  0.045
   21  0.006  0.001  0.038  0.045
   22  0.008  0.001  0.010  0.019
   23  0.006  0.001  0.038  0.045
   24  0.008  0.001  0.010  0.019
   25  0.000  0.000  0.026  0.027
   26  0.000  0.000  0.026  0.027
   27  0.008  0.001  0.010  0.019
   28  0.002  0.000  0.000  0.003
   29  0.000  0.000  0.005  0.005
   30  0.000  0.000  0.005  0.005
   31  0.000  0.000  0.005  0.005
   32  0.000  0.000  0.005  0.005
   33  0.000  0.000  0.005  0.005
   34  0.000  0.000  0.005  0.005
   35  0.013  0.001  0.001  0.015
   36  0.007  0.002  0.003  0.012
tot    0.163  0.032  0.560  0.755
 
band    15 # energy   -5.41618942 # occ.  2.00000000
 
ion      s      p      d    tot
    1  0.000  0.001  0.014  0.014
    2  0.009  0.001  0.004  0.014
    3  0.001  0.000  0.005  0.006
    4  0.009  0.001  0.004  0.014
    5  0.000  0.000  0.006  0.006
    6  0.005  0.001  0.005  0.011
    7  0.001  0.000  0.005  0.006
    8  0.005  0.001  0.005  0.011
    9  0.000  0.001  0.005  0.007
   10  0.000  0.001  0.033  0.034
   11  0.000  0.001  0.020  0.021
   12  0.009  0.000  0.021  0.030
   13  0.000  0.001  0.020  0.021
   14  0.000  0.001  0.016  0.017
   15  0.010  0.002  0.019  0.031
   16  0.009  0.000  0.021  0.031
   17  0.010  0.002  0.019  0.031
   18  0.000  0.000  0.059  0.060
   19  0.015  0.001  0.019  0.035
   20  0.000  0.002  0.021  0.023
   21  0.000  0.001  0.025  0.025
   22  0.016  0.001  0.020  0.037
   23  0.000  0.001  0.025  0.025
   24  0.000  0.001  0.028  0.029
   25  0.000  0.000  0.067  0.067
   26  0.015  0.001  0.019  0.035
   27  0.016  0.001  0.020  0.037
   28  0.000  0.001  0.006  0.006
   29  0.005  0.001  0.004  0.010
   30  0.000  0.001  0.007  0.007
   31  0.005  0.001  0.004  0.010
   32  0.006  0.001  0.003  0.010
   33  0.000  0.001  0.007  0.007
   34  0.006  0.001  0.003  0.010
   35  0.000  0.001  0.009  0.010
   36  0.000  0.000  0.004  0.004
tot    0.149  0.029  0.571  0.749
 
band    16 # energy   -5.41616688 # occ.  2.00000000
 
ion      s      p      d    tot
    1  0.000  0.001  0.014  0.014
    2  0.001  0.001  0.005  0.006
    3  0.009  0.001  0.004  0.014
    4  0.001  0.001  0.005  0.006
    5  0.000  0.000  0.006  0.006
    6  0.005  0.001  0.004  0.010
    7  0.009  0.001  0.004  0.014
    8  0.005  0.001  0.004  0.010
    9  0.000  0.001  0.005  0.007
   10  0.012  0.000  0.017  0.029
   11  0.000  0.001  0.017  0.018
   12  0.003  0.000  0.029  0.033
   13  0.000  0.001  0.017  0.018
   14  0.000  0.001  0.021  0.022
   15  0.003  0.001  0.046  0.050
   16  0.003  0.000  0.029  0.033
   17  0.003  0.001  0.046  0.050
   18  0.013  0.002  0.006  0.021
   19  0.005  0.001  0.051  0.056
   20  0.000  0.000  0.026  0.026
   21  0.000  0.002  0.022  0.024
   22  0.005  0.001  0.026  0.032
   23  0.000  0.002  0.022  0.024
   24  0.022  0.001  0.017  0.040
   25  0.019  0.001  0.004  0.024
   26  0.005  0.001  0.051  0.056
   27  0.005  0.001  0.026  0.032
   28  0.000  0.001  0.006  0.006
   29  0.002  0.001  0.005  0.008
   30  0.007  0.001  0.003  0.011
   31  0.002  0.001  0.005  0.008
   32  0.002  0.001  0.006  0.008
   33  0.007  0.001  0.003  0.011
   34  0.002  0.001  0.006  0.008
   35  0.000  0.001  0.009  0.010
   36  0.000  0.000  0.004  0.004
tot    0.149  0.029  0.571  0.749
 
band    17 # energy   -5.15264857 # occ.  2.00000000
 
ion      s      p      d    tot
    1  0.014  0.000  0.006  0.020
    2  0.000  0.001  0.019  0.019
    3  0.000  0.001  0.019  0.019
    4  0.000  0.001  0.019  0.019
    5  0.001  0.000  0.000  0.001
    6  0.000  0.001  0.019  0.019
    7  0.000  0.001  0.019  0.019
    8  0.000  0.001  0.019  0.019
    9  0.022  0.001  0.003  0.026
   10  0.001  0.001  0.016  0.018
   11  0.000  0.000  0.011  0.011
   12  0.001  0.001  0.016  0.018
   13  0.000  0.000  0.011  0.011
   14  0.000  0.000  0.010  0.011
   15  0.000  0.000  0.031  0.032
   16  0.001  0.001  0.016  0.018
   17  0.000  0.000  0.031  0.032
   18  0.000  0.000  0.031  0.032
   19  0.000  0.000  0.030  0.031
   20  0.000  0.000  0.031  0.031
   21  0.000  0.000  0.031  0.031
   22  0.000  0.000  0.026  0.026
   23  0.000  0.000  0.031  0.031
   24  0.000  0.000  0.026  0.026
   25  0.000  0.000  0.030  0.031
   26  0.000  0.000  0.030  0.031
   27  0.000  0.000  0.026  0.026
   28  0.002  0.000  0.014  0.016
   29  0.000  0.001  0.025  0.027
   30  0.000  0.001  0.025  0.026
   31  0.000  0.001  0.025  0.027
   32  0.000  0.001  0.025  0.027
   33  0.000  0.001  0.025  0.026
   34  0.000  0.001  0.025  0.027
   35  0.014  0.001  0.000  0.015
   36  0.020  0.000  0.008  0.027
tot    0.079  0.016  0.729  0.824
 
band    18 # energy   -5.14326568 # occ.  2.00000000
 
ion      s      p      d    tot
    1  0.000  0.000  0.023  0.023
    2  0.004  0.001  0.007  0.012
    3  0.002  0.000  0.010  0.012
    4  0.004  0.001  0.007  0.012
    5  0.000  0.001  0.014  0.015
    6  0.011  0.001  0.008  0.020
    7  0.002  0.000  0.010  0.012
    8  0.011  0.001  0.008  0.020
    9  0.000  0.001  0.006  0.007
   10  0.000  0.001  0.023  0.024
   11  0.000  0.000  0.040  0.040
   12  0.000  0.000  0.012  0.012
   13  0.000  0.000  0.040  0.040
   14  0.001  0.001  0.039  0.041
   15  0.000  0.000  0.009  0.009
   16  0.000  0.000  0.012  0.012
   17  0.000  0.000  0.009  0.009
   18  0.001  0.000  0.012  0.012
   19  0.000  0.000  0.007  0.007
   20  0.001  0.000  0.095  0.096
   21  0.000  0.001  0.056  0.056
   22  0.000  0.000  0.018  0.019
   23  0.000  0.001  0.056  0.056
   24  0.001  0.000  0.012  0.014
   25  0.000  0.000  0.015  0.015
   26  0.000  0.000  0.007  0.007
   27  0.000  0.000  0.018  0.019
   28  0.000  0.001  0.002  0.003
   29  0.012  0.001  0.027  0.040
   30  0.004  0.000  0.016  0.020
   31  0.012  0.001  0.027  0.040
   32  0.002  0.000  0.012  0.014
   33  0.004  0.000  0.016  0.020
   34  0.002  0.000  0.012  0.014
   35  0.000  0.000  0.023  0.023
   36  0.000  0.003  0.025  0.028
tot    0.075  0.019  0.731  0.826
 
band    19 # energy   -5.14324355 # occ.  2.00000000
 
ion      s      p      d    tot
    1  0.000  0.000  0.023  0.023
    2  0.007  0.000  0.010  0.017
    3  0.009  0.001  0.007  0.017
    4  0.007  0.000  0.010  0.017
    5  0.000  0.001  0.014  0.015
    6  0.000  0.000  0.009  0.010
    7  0.009  0.001  0.007  0.017
    8  0.000  0.000  0.009  0.010
    9  0.000  0.001  0.006  0.007
   10  0.000  0.000  0.008  0.008
   11  0.001  0.001  0.039  0.041
   12  0.000  0.000  0.019  0.020
   13  0.001  0.001  0.039  0.041
   14  0.000  0.000  0.040  0.040
   15  0.000  0.000  0.011  0.011
   16  0.000  0.000  0.019  0.020
   17  0.000  0.000  0.011  0.011
   18  0.000  0.000  0.008  0.008
   19  0.000  0.000  0.012  0.012
   20  0.000  0.001  0.042  0.043
   21  0.001  0.001  0.082  0.083
   22  0.001  0.000  0.014  0.015
   23  0.001  0.001  0.082  0.083
   24  0.000  0.000  0.020  0.020
   25  0.000  0.000  0.005  0.005
   26  0.000  0.000  0.012  0.012
   27  0.001  0.000  0.014  0.015
   28  0.000  0.001  0.002  0.003
   29  0.000  0.000  0.009  0.009
   30  0.008  0.001  0.021  0.030
   31  0.000  0.000  0.009  0.009
   32  0.010  0.001  0.024  0.035
   33  0.008  0.001  0.021  0.030
   34  0.010  0.001  0.024  0.035
   35  0.000  0.000  0.023  0.023
   36  0.000  0.003  0.025  0.028
tot    0.075  0.019  0.731  0.826
 
band    20 # energy   -5.09720213 # occ.  2.00000000
 
ion      s      p      d    tot
    1  0.004  0.000  0.000  0.004
    2  0.000  0.000  0.009  0.009
    3  0.000  0.000  0.009  0.009
    4  0.000  0.000  0.009  0.009
    5  0.006  0.000  0.010  0.015
    6  0.000  0.000  0.009  0.009
    7  0.000  0.000  0.009  0.009
    8  0.000  0.000  0.009  0.009
    9  0.000  0.000  0.006  0.006
   10  0.000  0.000  0.017  0.017
   11  0.000  0.000  0.031  0.031
   12  0.000  0.000  0.017  0.017
   13  0.000  0.000  0.031  0.031
   14  0.000  0.000  0.031  0.031
   15  0.000  0.000  0.025  0.026
   16  0.000  0.000  0.017  0.017
   17  0.000  0.000  0.025  0.026
   18  0.000  0.000  0.025  0.026
   19  0.000  0.000  0.024  0.024
   20  0.000  0.000  0.039  0.039
   21  0.000  0.000  0.039  0.039
   22  0.001  0.000  0.030  0.031
   23  0.000  0.000  0.039  0.039
   24  0.001  0.000  0.030  0.031
   25  0.000  0.000  0.024  0.024
   26  0.000  0.000  0.024  0.024
   27  0.001  0.000  0.030  0.031
   28  0.025  0.001  0.005  0.030
   29  0.000  0.000  0.029  0.030
   30  0.000  0.000  0.029  0.030
   31  0.000  0.000  0.029  0.030
   32  0.000  0.000  0.029  0.030
   33  0.000  0.000  0.029  0.030
   34  0.000  0.000  0.029  0.030
   35  0.017  0.000  0.008  0.025
   36  0.002  0.001  0.004  0.008
tot    0.060  0.011  0.757  0.827
 
band    21 # energy   -5.06769663 # occ.  2.00000000
 
ion      s      p      d    tot
    1  0.000  0.002  0.007  0.009
    2  0.012  0.001  0.019  0.031
    3  0.010  0.001  0.014  0.024
    4  0.012  0.001  0.019  0.031
    5  0.000  0.001  0.028  0.028
    6  0.000  0.000  0.014  0.015
    7  0.010  0.001  0.014  0.024
    8  0.000  0.000  0.014  0.015
    9  0.000  0.000  0.042  0.042
   10  0.001  0.001  0.033  0.035
   11  0.000  0.000  0.016  0.017
   12  0.000  0.000  0.016  0.017
   13  0.000  0.000  0.016  0.017
   14  0.000  0.000  0.012  0.012
   15  0.000  0.001  0.031  0.032
   16  0.000  0.000  0.016  0.016
   17  0.000  0.001  0.031  0.032
   18  0.000  0.001  0.035  0.035
   19  0.000  0.000  0.016  0.016
   20  0.000  0.000  0.012  0.012
   21  0.000  0.000  0.018  0.018
   22  0.000  0.000  0.023  0.023
   23  0.000  0.000  0.018  0.018
   24  0.001  0.001  0.031  0.033
   25  0.000  0.000  0.017  0.018
   26  0.000  0.000  0.016  0.016
   27  0.000  0.000  0.023  0.023
   28  0.000  0.000  0.029  0.029
   29  0.000  0.000  0.015  0.015
   30  0.010  0.001  0.009  0.020
   31  0.000  0.000  0.015  0.015
   32  0.012  0.001  0.022  0.035
   33  0.010  0.001  0.009  0.020
   34  0.012  0.001  0.022  0.035
   35  0.000  0.001  0.004  0.005
   36  0.000  0.001  0.018  0.019
tot    0.093  0.019  0.694  0.805
 
band    22 # energy   -5.06768657 # occ.  2.00000000
 
ion      s      p      d    tot
    1  0.000  0.002  0.007  0.009
    2  0.003  0.000  0.012  0.016
    3  0.004  0.000  0.018  0.023
    4  0.003  0.000  0.012  0.016
    5  0.000  0.001  0.028  0.028
    6  0.014  0.001  0.017  0.032
    7  0.005  0.000  0.018  0.023
    8  0.014  0.001  0.017  0.032
    9  0.000  0.000  0.042  0.042
   10  0.000  0.000  0.010  0.010
   11  0.000  0.000  0.013  0.014
   12  0.001  0.001  0.027  0.029
   13  0.000  0.000  0.013  0.014
   14  0.000  0.000  0.018  0.018
   15  0.000  0.001  0.034  0.034
   16  0.001  0.001  0.028  0.029