PROCAR new format
# of k-points:   10         # of bands:  252         # of ions:   38

 k-point     1 :    0.00000000 0.00000000 0.00000000     weight = 0.01562500

band     1 # energy  -18.24429849 # occ.  2.00000000
 
ion      s      p      d    tot
    1  0.000  0.000  0.000  0.000
    2  0.000  0.000  0.000  0.000
    3  0.000  0.000  0.000  0.000
    4  0.000  0.000  0.000  0.000
    5  0.000  0.000  0.000  0.000
    6  0.000  0.000  0.000  0.000
    7  0.000  0.000  0.000  0.000
    8  0.000  0.000  0.000  0.000
    9  0.000  0.000  0.000  0.000
   10  0.000  0.000  0.000  0.000
   11  0.000  0.000  0.000  0.000
   12  0.000  0.000  0.000  0.000
   13  0.000  0.000  0.000  0.000
   14  0.000  0.000  0.000  0.000
   15  0.000  0.000  0.000  0.000
   16  0.000  0.000  0.000  0.000
   17  0.000  0.000  0.000  0.000
   18  0.000  0.000  0.000  0.000
   19  0.000  0.000  0.000  0.000
   20  0.000  0.000  0.000  0.000
   21  0.000  0.000  0.000  0.000
   22  0.000  0.000  0.000  0.000
   23  0.000  0.000  0.000  0.000
   24  0.000  0.000  0.000  0.000
   25  0.000  0.000  0.000  0.000
   26  0.000  0.000  0.000  0.000
   27  0.000  0.000  0.000  0.000
   28  0.000  0.000  0.000  0.000
   29  0.000  0.000  0.000  0.000
   30  0.000  0.000  0.000  0.000
   31  0.000  0.000  0.000  0.000
   32  0.000  0.000  0.000  0.000
   33  0.000  0.000  0.000  0.000
   34  0.000  0.000  0.000  0.000
   35  0.000  0.000  0.000  0.000
   36  0.011  0.011  0.018  0.040
   37  0.739  0.014  0.000  0.752
   38  0.116  0.024  0.000  0.140
tot    0.866  0.049  0.018  0.932
 
band     2 # energy   -8.00725161 # occ.  2.00000000
 
ion      s      p      d    tot
    1  0.006  0.001  0.000  0.006
    2  0.006  0.000  0.000  0.006
    3  0.006  0.000  0.000  0.006
    4  0.006  0.000  0.000  0.006
    5  0.006  0.000  0.000  0.006
    6  0.006  0.000  0.000  0.006
    7  0.006  0.000  0.000  0.006
    8  0.006  0.000  0.000  0.006
    9  0.006  0.000  0.000  0.006
   10  0.024  0.000  0.000  0.025
   11  0.024  0.000  0.000  0.025
   12  0.024  0.000  0.000  0.025
   13  0.024  0.000  0.000  0.025
   14  0.024  0.000  0.000  0.025
   15  0.024  0.000  0.000  0.024
   16  0.024  0.000  0.000  0.025
   17  0.024  0.000  0.000  0.024
   18  0.024  0.000  0.000  0.024
   19  0.022  0.000  0.000  0.023
   20  0.027  0.000  0.000  0.027
   21  0.027  0.000  0.000  0.027
   22  0.023  0.000  0.000  0.024
   23  0.027  0.000  0.000  0.027
   24  0.023  0.000  0.000  0.024
   25  0.022  0.000  0.000  0.023
   26  0.022  0.000  0.000  0.023
   27  0.023  0.000  0.000  0.024
   28  0.005  0.000  0.000  0.005
   29  0.006  0.000  0.000  0.006
   30  0.006  0.000  0.000  0.006
   31  0.006  0.000  0.000  0.006
   32  0.006  0.000  0.000  0.006
   33  0.006  0.000  0.000  0.006
   34  0.006  0.000  0.000  0.006
   35  0.005  0.000  0.000  0.005
   36  0.020  0.000  0.005  0.025
   37  0.000  0.022  0.000  0.022
   38  0.008  0.001  0.000  0.009
tot    0.559  0.033  0.009  0.601
 
band     3 # energy   -7.37422675 # occ.  2.00000000
 
ion      s      p      d    tot
    1  0.002  0.000  0.000  0.002
    2  0.003  0.000  0.000  0.003
    3  0.003  0.000  0.000  0.003
    4  0.003  0.000  0.000  0.003
    5  0.003  0.000  0.000  0.003
    6  0.003  0.000  0.000  0.003
    7  0.003  0.000  0.000  0.003
    8  0.003  0.000  0.000  0.003
    9  0.003  0.000  0.000  0.003
   10  0.004  0.000  0.001  0.005
   11  0.004  0.000  0.000  0.005
   12  0.004  0.000  0.001  0.005
   13  0.004  0.000  0.000  0.005
   14  0.004  0.000  0.000  0.005
   15  0.006  0.000  0.000  0.006
   16  0.004  0.000  0.001  0.005
   17  0.006  0.000  0.000  0.006
   18  0.006  0.000  0.000  0.006
   19  0.000  0.000  0.000  0.001
   20  0.001  0.001  0.004  0.006
   21  0.001  0.001  0.004  0.006
   22  0.001  0.000  0.000  0.001
   23  0.001  0.001  0.004  0.006
   24  0.001  0.000  0.000  0.001
   25  0.000  0.000  0.000  0.001
   26  0.000  0.000  0.000  0.001
   27  0.001  0.000  0.000  0.001
   28  0.000  0.000  0.000  0.000
   29  0.001  0.000  0.001  0.002
   30  0.001  0.000  0.001  0.002
   31  0.001  0.000  0.001  0.002
   32  0.001  0.000  0.001  0.002
   33  0.001  0.000  0.001  0.002
   34  0.001  0.000  0.001  0.002
   35  0.000  0.000  0.000  0.000
   36  0.079  0.020  0.117  0.216
   37  0.012  0.410  0.000  0.422
   38  0.140  0.015  0.000  0.155
tot    0.308  0.453  0.137  0.899
 
band     4 # energy   -6.74719724 # occ.  2.00000000
 
ion      s      p      d    tot
    1  0.016  0.000  0.001  0.018
    2  0.015  0.000  0.001  0.017
    3  0.015  0.000  0.001  0.017
    4  0.015  0.000  0.001  0.017
    5  0.015  0.000  0.001  0.016
    6  0.015  0.000  0.001  0.017
    7  0.015  0.000  0.001  0.017
    8  0.015  0.000  0.001  0.017
    9  0.015  0.000  0.001  0.016
   10  0.009  0.001  0.002  0.012
   11  0.008  0.001  0.002  0.012
   12  0.009  0.001  0.002  0.012
   13  0.008  0.001  0.002  0.012
   14  0.008  0.001  0.002  0.012
   15  0.007  0.002  0.002  0.011
   16  0.009  0.001  0.002  0.012
   17  0.007  0.002  0.002  0.011
   18  0.007  0.002  0.002  0.011
   19  0.016  0.001  0.003  0.020
   20  0.011  0.001  0.004  0.015
   21  0.011  0.001  0.004  0.015
   22  0.017  0.001  0.003  0.021
   23  0.011  0.001  0.004  0.015
   24  0.017  0.001  0.003  0.021
   25  0.016  0.001  0.003  0.020
   26  0.016  0.001  0.003  0.020
   27  0.017  0.001  0.003  0.021
   28  0.015  0.001  0.000  0.016
   29  0.013  0.001  0.001  0.014
   30  0.013  0.001  0.001  0.014
   31  0.013  0.001  0.001  0.014
   32  0.013  0.001  0.001  0.014
   33  0.013  0.001  0.001  0.014
   34  0.013  0.001  0.001  0.014
   35  0.015  0.001  0.000  0.016
   36  0.001  0.006  0.024  0.030
   37  0.003  0.043  0.000  0.046
   38  0.014  0.001  0.000  0.015
tot    0.463  0.080  0.089  0.631
 
band     5 # energy   -5.85241892 # occ.  2.00000000
 
ion      s      p      d    tot
    1  0.015  0.000  0.023  0.038
    2  0.020  0.000  0.019  0.039
    3  0.020  0.000  0.019  0.039
    4  0.020  0.000  0.019  0.039
    5  0.015  0.000  0.019  0.033
    6  0.020  0.000  0.019  0.039
    7  0.020  0.000  0.019  0.039
    8  0.020  0.000  0.019  0.039
    9  0.032  0.000  0.016  0.048
   10  0.011  0.001  0.021  0.032
   11  0.014  0.001  0.018  0.033
   12  0.011  0.001  0.021  0.032
   13  0.014  0.001  0.018  0.033
   14  0.014  0.001  0.018  0.033
   15  0.001  0.001  0.024  0.026
   16  0.011  0.001  0.021  0.032
   17  0.001  0.001  0.024  0.026
   18  0.001  0.001  0.024  0.026
   19  0.000  0.001  0.002  0.003
   20  0.003  0.001  0.003  0.006
   21  0.003  0.001  0.003  0.006
   22  0.001  0.001  0.001  0.003
   23  0.003  0.001  0.003  0.006
   24  0.001  0.001  0.001  0.003
   25  0.000  0.001  0.002  0.003
   26  0.000  0.001  0.002  0.003
   27  0.001  0.001  0.001  0.003
   28  0.005  0.000  0.001  0.006
   29  0.003  0.000  0.002  0.005
   30  0.003  0.000  0.002  0.005
   31  0.003  0.000  0.002  0.005
   32  0.003  0.000  0.002  0.005
   33  0.003  0.000  0.002  0.005
   34  0.003  0.000  0.002  0.005
   35  0.006  0.000  0.001  0.007
   36  0.000  0.000  0.001  0.002
   37  0.000  0.000  0.000  0.000
   38  0.000  0.000  0.000  0.000
tot    0.301  0.016  0.392  0.709
 
band     6 # energy   -5.81950876 # occ.  2.00000000
 
ion      s      p      d    tot
    1  0.000  0.000  0.009  0.009
    2  0.003  0.001  0.003  0.007
    3  0.001  0.000  0.003  0.004
    4  0.003  0.001  0.003  0.007
    5  0.000  0.001  0.007  0.008
    6  0.007  0.001  0.004  0.012
    7  0.001  0.000  0.003  0.004
    8  0.007  0.001  0.004  0.012
    9  0.000  0.000  0.001  0.001
   10  0.037  0.002  0.005  0.044
   11  0.013  0.003  0.022  0.038
   12  0.009  0.001  0.030  0.040
   13  0.014  0.003  0.022  0.038
   14  0.053  0.001  0.011  0.065
   15  0.000  0.003  0.007  0.010
   16  0.009  0.001  0.030  0.040
   17  0.000  0.003  0.007  0.010
   18  0.002  0.000  0.014  0.016
   19  0.002  0.003  0.006  0.011
   20  0.059  0.001  0.009  0.069
   21  0.015  0.002  0.025  0.042
   22  0.004  0.001  0.021  0.026
   23  0.014  0.002  0.025  0.041
   24  0.017  0.002  0.005  0.024
   25  0.009  0.000  0.014  0.023
   26  0.002  0.003  0.006  0.011
   27  0.004  0.001  0.022  0.027
   28  0.000  0.000  0.001  0.001
   29  0.006  0.001  0.003  0.010
   30  0.002  0.001  0.003  0.005
   31  0.006  0.001  0.003  0.010
   32  0.001  0.000  0.002  0.004
   33  0.002  0.001  0.003  0.005
   34  0.001  0.000  0.002  0.004
   35  0.000  0.000  0.004  0.004
   36  0.000  0.002  0.008  0.010
   37  0.000  0.000  0.000  0.000
   38  0.000  0.000  0.000  0.000
tot    0.306  0.043  0.345  0.695
 
band     7 # energy   -5.81946765 # occ.  2.00000000
 
ion      s      p      d    tot
    1  0.000  0.000  0.009  0.009
    2  0.004  0.001  0.004  0.009
    3  0.007  0.001  0.003  0.011
    4  0.004  0.001  0.004  0.009
    5  0.000  0.001  0.007  0.008
    6  0.000  0.000  0.003  0.004
    7  0.007  0.001  0.003  0.011
    8  0.000  0.000  0.003  0.004
    9  0.000  0.000  0.001  0.001
   10  0.000  0.000  0.039  0.039
   11  0.040  0.001  0.015  0.056
   12  0.028  0.002  0.013  0.042
   13  0.040  0.001  0.015  0.056
   14  0.000  0.003  0.025  0.029
   15  0.001  0.001  0.011  0.014
   16  0.028  0.002  0.013  0.042
   17  0.001  0.001  0.011  0.014
   18  0.000  0.004  0.005  0.008
   19  0.007  0.001  0.011  0.019
   20  0.000  0.002  0.031  0.033
   21  0.044  0.002  0.014  0.060
   22  0.013  0.001  0.010  0.025
   23  0.044  0.002  0.014  0.060
   24  0.000  0.000  0.027  0.028
   25  0.000  0.004  0.003  0.007
   26  0.007  0.001  0.011  0.019
   27  0.013  0.001  0.010  0.025
   28  0.000  0.000  0.001  0.001
   29  0.000  0.000  0.002  0.002
   30  0.004  0.001  0.003  0.008
   31  0.000  0.000  0.002  0.002
   32  0.005  0.001  0.003  0.009
   33  0.004  0.001  0.003  0.008
   34  0.005  0.001  0.003  0.009
   35  0.000  0.000  0.004  0.004
   36  0.000  0.002  0.008  0.010
   37  0.000  0.000  0.000  0.000
   38  0.000  0.000  0.000  0.000
tot    0.306  0.043  0.345  0.695
 
band     8 # energy   -5.80763416 # occ.  2.00000000
 
ion      s      p      d    tot
    1  0.020  0.001  0.000  0.022
    2  0.001  0.001  0.007  0.009
    3  0.001  0.001  0.007  0.009
    4  0.001  0.001  0.007  0.009
    5  0.001  0.000  0.003  0.005
    6  0.001  0.001  0.007  0.009
    7  0.001  0.001  0.007  0.009
    8  0.001  0.001  0.007  0.009
    9  0.005  0.002  0.004  0.010
   10  0.011  0.000  0.030  0.042
   11  0.000  0.001  0.022  0.023
   12  0.011  0.000  0.031  0.042
   13  0.000  0.001  0.022  0.023
   14  0.000  0.001  0.022  0.023
   15  0.034  0.003  0.002  0.039
   16  0.011  0.000  0.031  0.042
   17  0.034  0.003  0.002  0.039
   18  0.035  0.003  0.002  0.040
   19  0.005  0.002  0.014  0.021
   20  0.015  0.000  0.019  0.033
   21  0.015  0.000  0.019  0.034
   22  0.018  0.003  0.008  0.029
   23  0.015  0.000  0.019  0.034
   24  0.018  0.003  0.008  0.029
   25  0.004  0.002  0.015  0.021
   26  0.005  0.002  0.014  0.021
   27  0.018  0.003  0.008  0.029
   28  0.000  0.000  0.000  0.000
   29  0.000  0.000  0.004  0.004
   30  0.000  0.000  0.004  0.004
   31  0.000  0.000  0.004  0.004
   32  0.000  0.000  0.004  0.004
   33  0.000  0.000  0.004  0.004
   34  0.000  0.000  0.004  0.004
   35  0.008  0.001  0.000  0.010
   36  0.002  0.005  0.000  0.007
   37  0.001  0.008  0.000  0.009
   38  0.003  0.000  0.000  0.003
tot    0.296  0.051  0.357  0.705
 
band     9 # energy   -5.79220772 # occ.  2.00000000
 
ion      s      p      d    tot
    1  0.000  0.001  0.004  0.004
    2  0.004  0.001  0.003  0.008
    3  0.001  0.000  0.004  0.005
    4  0.004  0.001  0.003  0.008
    5  0.000  0.000  0.004  0.004
    6  0.008  0.001  0.004  0.014
    7  0.001  0.000  0.004  0.005
    8  0.008  0.001  0.004  0.013
    9  0.000  0.001  0.011  0.012
   10  0.000  0.005  0.005  0.009
   11  0.006  0.001  0.012  0.019
   12  0.020  0.001  0.013  0.034
   13  0.005  0.001  0.012  0.019
   14  0.000  0.002  0.023  0.025
   15  0.048  0.001  0.014  0.063
   16  0.020  0.001  0.013  0.035
   17  0.046  0.001  0.015  0.063
   18  0.000  0.001  0.044  0.045
   19  0.032  0.002  0.011  0.045
   20  0.000  0.002  0.010  0.012
   21  0.000  0.001  0.011  0.013
   22  0.026  0.001  0.013  0.041
   23  0.000  0.001  0.011  0.013
   24  0.000  0.004  0.015  0.019
   25  0.000  0.000  0.036  0.036
   26  0.031  0.002  0.012  0.044
   27  0.027  0.001  0.013  0.042
   28  0.000  0.000  0.007  0.007
   29  0.005  0.001  0.002  0.008
   30  0.002  0.000  0.003  0.005
   31  0.005  0.001  0.002  0.008
   32  0.001  0.000  0.002  0.003
   33  0.002  0.000  0.003  0.005
   34  0.001  0.000  0.002  0.003
   35  0.000  0.001  0.004  0.005
   36  0.000  0.000  0.001  0.001
   37  0.000  0.000  0.000  0.000
   38  0.000  0.000  0.000  0.000
tot    0.301  0.042  0.350  0.693
 
band    10 # energy   -5.79218404 # occ.  2.00000000
 
ion      s      p      d    tot
    1  0.000  0.001  0.004  0.004
    2  0.005  0.001  0.004  0.010
    3  0.008  0.001  0.004  0.013
    4  0.004  0.001  0.004  0.009
    5  0.000  0.000  0.004  0.004
    6  0.000  0.000  0.003  0.004
    7  0.008  0.001  0.004  0.013
    8  0.000  0.000  0.003  0.004
    9  0.000  0.001  0.011  0.012
   10  0.027  0.000  0.016  0.043
   11  0.002  0.001  0.020  0.023
   12  0.007  0.003  0.007  0.018
   13  0.002  0.001  0.019  0.023
   14  0.007  0.001  0.008  0.016
   15  0.015  0.001  0.034  0.051
   16  0.006  0.004  0.007  0.017
   17  0.017  0.001  0.034  0.051
   18  0.062  0.002  0.005  0.069
   19  0.010  0.001  0.028  0.039
   20  0.000  0.001  0.012  0.013
   21  0.000  0.002  0.010  0.012
   22  0.009  0.003  0.015  0.027
   23  0.000  0.002  0.010  0.012
   24  0.036  0.001  0.013  0.049
   25  0.041  0.002  0.003  0.046
   26  0.011  0.001  0.028  0.039
   27  0.009  0.003  0.015  0.026
   28  0.000  0.000  0.007  0.007
   29  0.000  0.000  0.002  0.002
   30  0.003  0.001  0.002  0.005
   31  0.000  0.000  0.002  0.002
   32  0.004  0.001  0.003  0.008
   33  0.003  0.001  0.002  0.006
   34  0.004  0.001  0.003  0.008
   35  0.000  0.001  0.004  0.005
   36  0.000  0.000  0.001  0.001
   37  0.000  0.000  0.000  0.000
   38  0.000  0.000  0.000  0.000
tot    0.301  0.042  0.350  0.693
 
band    11 # energy   -5.78648647 # occ.  2.00000000
 
ion      s      p      d    tot
    1  0.002  0.001  0.001  0.003
    2  0.001  0.001  0.006  0.008
    3  0.000  0.001  0.006  0.008
    4  0.001  0.001  0.006  0.008
    5  0.023  0.002  0.000  0.025
    6  0.001  0.001  0.007  0.008
    7  0.000  0.001  0.006  0.008
    8  0.001  0.001  0.007  0.008
    9  0.002  0.001  0.004  0.006
   10  0.015  0.003  0.007  0.024
   11  0.026  0.002  0.013  0.041
   12  0.015  0.003  0.007  0.025
   13  0.026  0.002  0.013  0.041
   14  0.026  0.002  0.013  0.041
   15  0.006  0.000  0.030  0.036
   16  0.015  0.003  0.007  0.025
   17  0.006  0.000  0.030  0.036
   18  0.006  0.000  0.030  0.036
   19  0.024  0.001  0.010  0.036
   20  0.011  0.003  0.008  0.022
   21  0.011  0.003  0.009  0.022
   22  0.001  0.000  0.026  0.027
   23  0.011  0.003  0.009  0.022
   24  0.001  0.000  0.026  0.027
   25  0.025  0.001  0.010  0.036
   26  0.024  0.001  0.010  0.036
   27  0.001  0.000  0.026  0.028
   28  0.006  0.001  0.003  0.010
   29  0.000  0.000  0.004  0.005
   30  0.000  0.000  0.004  0.005
   31  0.000  0.000  0.004  0.005
   32  0.000  0.000  0.004  0.005
   33  0.000  0.000  0.004  0.005
   34  0.000  0.000  0.004  0.005
   35  0.004  0.000  0.000  0.005
   36  0.004  0.001  0.002  0.008
   37  0.000  0.001  0.000  0.002
   38  0.000  0.000  0.000  0.000
tot    0.299  0.042  0.358  0.698
 
band    12 # energy   -5.74456499 # occ.  2.00000000
 
ion      s      p      d    tot
    1  0.001  0.000  0.000  0.001
    2  0.000  0.000  0.000  0.000
    3  0.000  0.000  0.000  0.000
    4  0.000  0.000  0.000  0.000
    5  0.000  0.000  0.000  0.000
    6  0.000  0.000  0.000  0.000
    7  0.000  0.000  0.000  0.000
    8  0.000  0.000  0.000  0.000
    9  0.000  0.000  0.000  0.000
   10  0.003  0.000  0.005  0.008
   11  0.000  0.000  0.007  0.007
   12  0.003  0.000  0.005  0.008
   13  0.000  0.000  0.007  0.007
   14  0.000  0.000  0.007  0.007
   15  0.000  0.000  0.005  0.006
   16  0.003  0.000  0.005  0.008
   17  0.000  0.000  0.005  0.006
   18  0.000  0.000  0.005  0.006
   19  0.004  0.001  0.024  0.028
   20  0.006  0.001  0.030  0.036
   21  0.006  0.001  0.030  0.036
   22  0.011  0.001  0.023  0.035
   23  0.006  0.001  0.030  0.036
   24  0.011  0.001  0.023  0.035
   25  0.004  0.001  0.024  0.028
   26  0.004  0.001  0.024  0.028
   27  0.011  0.001  0.023  0.035
   28  0.025  0.000  0.018  0.044
   29  0.022  0.000  0.019  0.041
   30  0.022  0.000  0.019  0.041
   31  0.022  0.000  0.019  0.041
   32  0.022  0.000  0.019  0.041
   33  0.022  0.000  0.019  0.041
   34  0.022  0.000  0.019  0.041
   35  0.018  0.000  0.021  0.039
   36  0.015  0.000  0.025  0.040
   37  0.000  0.001  0.000  0.002
   38  0.000  0.000  0.000  0.000
tot    0.264  0.010  0.462  0.737
 
band    13 # energy   -5.33351829 # occ.  2.00000000
 
ion      s      p      d    tot
    1  0.019  0.002  0.001  0.023
    2  0.000  0.001  0.008  0.009
    3  0.000  0.001  0.008  0.009
    4  0.000  0.001  0.008  0.009
    5  0.001  0.000  0.002  0.004
    6  0.000  0.001  0.008  0.009
    7  0.000  0.001  0.008  0.009
    8  0.000  0.001  0.008  0.009
    9  0.010  0.001  0.000  0.011
   10  0.008  0.002  0.011  0.020
   11  0.006  0.001  0.031  0.038
   12  0.008  0.002  0.011  0.020
   13  0.006  0.001  0.031  0.038
   14  0.006  0.001  0.031  0.037
   15  0.000  0.000  0.037  0.038
   16  0.008  0.002  0.011  0.020
   17  0.000  0.000  0.037  0.038
   18  0.000  0.000  0.038  0.038
   19  0.009  0.001  0.006  0.017
   20  0.000  0.000  0.039  0.039
   21  0.000  0.000  0.039  0.039
   22  0.010  0.001  0.032  0.043
   23  0.000  0.000  0.039  0.039
   24  0.010  0.001  0.032  0.043
   25  0.009  0.001  0.006  0.017
   26  0.009  0.001  0.006  0.017
   27  0.010  0.001  0.032  0.043
   28  0.016  0.002  0.001  0.018
   29  0.000  0.001  0.007  0.007
   30  0.000  0.001  0.007  0.007
   31  0.000  0.001  0.007  0.007
   32  0.000  0.001  0.007  0.007
   33  0.000  0.001  0.007  0.007
   34  0.000  0.001  0.007  0.007
   35  0.004  0.001  0.003  0.007
   36  0.003  0.000  0.002  0.006
   37  0.000  0.000  0.000  0.000
   38  0.000  0.000  0.000  0.000
tot    0.155  0.030  0.566  0.751
 
band    14 # energy   -5.32512033 # occ.  2.00000000
 
ion      s      p      d    tot
    1  0.000  0.001  0.004  0.004
    2  0.001  0.001  0.005  0.007
    3  0.009  0.001  0.005  0.015
    4  0.001  0.001  0.005  0.007
    5  0.000  0.001  0.011  0.012
    6  0.005  0.001  0.004  0.009
    7  0.009  0.001  0.005  0.015
    8  0.005  0.001  0.004  0.009
    9  0.000  0.000  0.011  0.011
   10  0.000  0.001  0.045  0.046
   11  0.015  0.001  0.021  0.037
   12  0.005  0.002  0.019  0.026
   13  0.015  0.001  0.021  0.037
   14  0.000  0.000  0.057  0.057
   15  0.002  0.000  0.021  0.024
   16  0.005  0.002  0.019  0.026
   17  0.002  0.000  0.021  0.024
   18  0.000  0.001  0.013  0.014
   19  0.005  0.000  0.019  0.024
   20  0.000  0.000  0.062  0.062
   21  0.018  0.001  0.021  0.040
   22  0.005  0.001  0.019  0.024
   23  0.018  0.001  0.021  0.040
   24  0.000  0.001  0.042  0.043
   25  0.000  0.001  0.010  0.011
   26  0.005  0.000  0.019  0.024
   27  0.005  0.001  0.019  0.024
   28  0.000  0.000  0.007  0.007
   29  0.002  0.001  0.004  0.007
   30  0.009  0.001  0.004  0.014
   31  0.002  0.001  0.004  0.007
   32  0.002  0.001  0.004  0.007
   33  0.009  0.001  0.004  0.014
   34  0.002  0.001  0.004  0.007
   35  0.000  0.000  0.003  0.004
   36  0.000  0.003  0.008  0.010
   37  0.000  0.000  0.000  0.000
   38  0.000  0.000  0.000  0.000
tot    0.156  0.031  0.562  0.750
 
band    15 # energy   -5.32511050 # occ.  2.00000000
 
ion      s      p      d    tot
    1  0.000  0.001  0.004  0.004
    2  0.009  0.001  0.004  0.014
    3  0.001  0.000  0.005  0.006
    4  0.009  0.001  0.004  0.014
    5  0.000  0.001  0.011  0.012
    6  0.005  0.001  0.005  0.012
    7  0.001  0.000  0.005  0.006
    8  0.005  0.001  0.005  0.012
    9  0.000  0.000  0.011  0.011
   10  0.007  0.002  0.011  0.019
   11  0.005  0.000  0.045  0.050
   12  0.002  0.001  0.037  0.039
   13  0.005  0.000  0.045  0.050
   14  0.020  0.001  0.009  0.031
   15  0.001  0.001  0.016  0.017
   16  0.002  0.001  0.037  0.039
   17  0.001  0.001  0.016  0.017
   18  0.003  0.000  0.024  0.027
   19  0.002  0.001  0.013  0.015
   20  0.024  0.001  0.007  0.032
   21  0.006  0.000  0.048  0.055
   22  0.001  0.001  0.034  0.036
   23  0.006  0.000  0.048  0.055
   24  0.006  0.001  0.011  0.018
   25  0.006  0.000  0.022  0.028
   26  0.002  0.001  0.013  0.015
   27  0.001  0.001  0.034  0.036
   28  0.000  0.000  0.007  0.007
   29  0.006  0.001  0.004  0.012
   30  0.000  0.000  0.004  0.004
   31  0.006  0.001  0.004  0.012
   32  0.007  0.001  0.004  0.011
   33  0.000  0.000  0.004  0.004
   34  0.007  0.001  0.004  0.011
   35  0.000  0.000  0.003  0.004
   36  0.000  0.003  0.008  0.010
   37  0.000  0.000  0.000  0.000
   38  0.000  0.000  0.000  0.000
tot    0.156  0.031  0.562  0.749
 
band    16 # energy   -5.30441591 # occ.  2.00000000
 
ion      s      p      d    tot
    1  0.000  0.001  0.015  0.015
    2  0.009  0.001  0.004  0.015
    3  0.001  0.000  0.005  0.006
    4  0.009  0.001  0.004  0.015
    5  0.000  0.000  0.006  0.006
    6  0.005  0.001  0.005  0.011
    7  0.001  0.000  0.005  0.006
    8  0.005  0.001  0.005  0.011
    9  0.000  0.001  0.006  0.007
   10  0.000  0.001  0.035  0.036
   11  0.000  0.001  0.019  0.021
   12  0.009  0.000  0.022  0.031
   13  0.000  0.001  0.019  0.021
   14  0.000  0.001  0.016  0.017
   15  0.011  0.002  0.020  0.033
   16  0.009  0.000  0.022  0.031
   17  0.011  0.002  0.020  0.033
   18  0.000  0.000  0.062  0.062
   19  0.015  0.001  0.020  0.036
   20  0.000  0.002  0.019  0.021
   21  0.000  0.001  0.021  0.021
   22  0.016  0.001  0.021  0.037
   23  0.000  0.001  0.021  0.021
   24  0.000  0.001  0.029  0.030
   25  0.000  0.000  0.066  0.066
   26  0.015  0.001  0.020  0.036
   27  0.016  0.001  0.021  0.037
   28  0.000  0.001  0.005  0.006
   29  0.005  0.001  0.004  0.010
   30  0.000  0.000  0.004  0.005
   31  0.005  0.001  0.004  0.011
   32  0.005  0.001  0.003  0.009
   33  0.000  0.000  0.004  0.005
   34  0.005  0.001  0.003  0.009
   35  0.000  0.001  0.009  0.010
   36  0.000  0.000  0.002  0.002
   37  0.000  0.000  0.000  0.000
   38  0.000  0.000  0.000  0.000
tot    0.152  0.029  0.568  0.750
 
band    17 # energy   -5.30440783 # occ.  2.00000000
 
ion      s      p      d    tot
    1  0.000  0.001  0.015  0.015
    2  0.001  0.001  0.005  0.006
    3  0.009  0.001  0.005  0.015
    4  0.001  0.001  0.005  0.006
    5  0.000  0.000  0.006  0.006
    6  0.005  0.001  0.004  0.010
    7  0.009  0.001  0.005  0.015
    8  0.005  0.001  0.004  0.010
    9  0.000  0.001  0.006  0.007
   10  0.011  0.000  0.018  0.030
   11  0.000  0.001  0.017  0.018
   12  0.003  0.001  0.031  0.034
   13  0.000  0.001  0.017  0.018
   14  0.000  0.001  0.020  0.022
   15  0.004  0.001  0.048  0.052
   16  0.003  0.001  0.031  0.034
   17  0.004  0.001  0.048  0.052
   18  0.014  0.002  0.006  0.023
   19  0.005  0.001  0.051  0.056
   20  0.000  0.000  0.021  0.021
   21  0.000  0.001  0.020  0.021
   22  0.005  0.001  0.027  0.032
   23  0.000  0.001  0.020  0.021
   24  0.021  0.001  0.018  0.040
   25  0.021  0.001  0.004  0.026
   26  0.005  0.001  0.051  0.056
   27  0.005  0.001  0.027  0.032
   28  0.000  0.001  0.005  0.006
   29  0.002  0.000  0.003  0.006
   30  0.007  0.001  0.003  0.011
   31  0.002  0.000  0.003  0.006
   32  0.002  0.001  0.005  0.007
   33  0.007  0.001  0.003  0.011
   34  0.002  0.001  0.005  0.007
   35  0.000  0.001  0.009  0.010
   36  0.000  0.000  0.002  0.002
   37  0.000  0.000  0.000  0.000
   38  0.000  0.000  0.000  0.000
tot    0.152  0.029  0.568  0.750
 
band    18 # energy   -5.29048085 # occ.  2.00000000
 
ion      s      p      d    tot
    1  0.002  0.000  0.002  0.003
    2  0.000  0.001  0.008  0.009
    3  0.000  0.001  0.008  0.009
    4  0.000  0.001  0.008  0.009
    5  0.018  0.002  0.000  0.019
    6  0.000  0.001  0.008  0.009
    7  0.000  0.001  0.008  0.009
    8  0.000  0.001  0.008  0.009
    9  0.009  0.001  0.002  0.012
   10  0.002  0.000  0.043  0.044
   11  0.003  0.001  0.023  0.027
   12  0.002  0.000  0.043  0.044
   13  0.003  0.001  0.023  0.027
   14  0.003  0.001  0.023  0.027
   15  0.008  0.001  0.013  0.023
   16  0.002  0.000  0.043  0.044
   17  0.008  0.001  0.013  0.023
   18  0.008  0.001  0.013  0.023
   19  0.004  0.000  0.045  0.049
   20  0.013  0.001  0.012  0.026
   21  0.013  0.001  0.012  0.026
   22  0.003  0.001  0.022  0.026
   23  0.013  0.001  0.012  0.026
   24  0.003  0.001  0.022  0.026
   25  0.004  0.000  0.045  0.049
   26  0.004  0.000  0.045  0.049
   27  0.003  0.001  0.022  0.026
   28  0.000  0.000  0.002  0.003
   29  0.000  0.001  0.007  0.007
   30  0.000  0.001  0.007  0.007
   31  0.000  0.001  0.007  0.007
   32  0.000  0.001  0.007  0.007
   33  0.000  0.001  0.007  0.007
   34  0.000  0.001  0.007  0.007
   35  0.010  0.001  0.000  0.011
   36  0.009  0.007  0.001  0.016
   37  0.001  0.006  0.000  0.007
   38  0.002  0.000  0.000  0.002
tot    0.149  0.040  0.571  0.760
 
band    19 # energy   -4.95470943 # occ.  2.00000000
 
ion      s      p      d    tot
    1  0.009  0.000  0.013  0.022
    2  0.000  0.001  0.019  0.020
    3  0.000  0.001  0.019  0.020
    4  0.000  0.001  0.019  0.020
    5  0.004  0.001  0.004  0.008
    6  0.000  0.001  0.019  0.020
    7  0.000  0.001  0.019  0.020
    8  0.000  0.001  0.019  0.020
    9  0.025  0.001  0.003  0.029
   10  0.000  0.000  0.035  0.036
   11  0.000  0.000  0.032  0.033
   12  0.000  0.000  0.035  0.035
   13  0.000  0.000  0.032  0.033
   14  0.000  0.000  0.032  0.032
   15  0.000  0.000  0.030  0.030
   16  0.000  0.000  0.035  0.035
   17  0.000  0.000  0.030  0.030
   18  0.000  0.000  0.030  0.030
   19  0.000  0.000  0.021  0.022
   20  0.001  0.000  0.033  0.034
   21  0.001  0.000  0.033  0.033
   22  0.000  0.000  0.023  0.023
   23  0.001  0.000  0.033  0.033
   24  0.000  0.000  0.023  0.023
   25  0.000  0.000  0.021  0.022
   26  0.000  0.000  0.021  0.022
   27  0.000  0.000  0.023  0.023
   28  0.000  0.000  0.005  0.005
   29  0.000  0.001  0.013  0.014
   30  0.000  0.001  0.013  0.014
   31  0.000  0.001  0.013  0.014
   32  0.000  0.001  0.013  0.014
   33  0.000  0.001  0.013  0.014
   34  0.000  0.001  0.013  0.014
   35  0.009  0.001  0.000  0.009
   36  0.012  0.000  0.009  0.022
   37  0.000  0.000  0.000  0.000
   38  0.000  0.000  0.000  0.000
tot    0.064  0.016  0.748  0.828
 
band    20 # energy   -4.94705095 # occ.  2.00000000
 
ion      s      p      d    tot
    1  0.000  0.000  0.021  0.021
    2  0.000  0.001  0.013  0.014
    3  0.008  0.000  0.016  0.024
    4  0.000  0.001  0.013  0.014
    5  0.000  0.000  0.031  0.032
    6  0.010  0.001  0.010  0.021
    7  0.008  0.000  0.016  0.024
    8  0.010  0.001  0.010  0.021
    9  0.000  0.002  0.007  0.008
   10  0.000  0.000  0.021  0.021
   11  0.000  0.000  0.045  0.045
   12  0.000  0.000  0.011  0.011
   13  0.000  0.000  0.045  0.045
   14  0.000  0.001  0.039  0.040
   15  0.000  0.000  0.039  0.039
   16  0.000  0.000  0.011  0.011
   17  0.000  0.000  0.038  0.039
   18  0.000  0.000  0.048  0.049
   19  0.000  0.000  0.010  0.010
   20  0.001  0.000  0.045  0.047
   21  0.000  0.000  0.026  0.026
   22  0.000  0.000  0.034  0.034
   23  0.000  0.000  0.026  0.026
   24  0.000  0.000  0.035  0.036
   25  0.001  0.000  0.011  0.012
   26  0.000  0.000  0.010  0.010
   27  0.000  0.000  0.034  0.034
   28  0.000  0.000  0.011  0.011
   29  0.006  0.000  0.011  0.017
   30  0.000  0.000  0.008  0.008
   31  0.006  0.000  0.011  0.017
   32  0.006  0.001  0.006  0.013
   33  0.000  0.000  0.008  0.008
   34  0.006  0.001  0.006  0.013
   35  0.000  0.000  0.018  0.018
   36  0.000  0.002  0.004  0.006
   37  0.000  0.000  0.000  0.000
   38  0.000  0.000  0.000  0.000
tot    0.064  0.016  0.747  0.827
 
band    21 # energy   -4.94704084 # occ.  2.00000000
 
ion      s      p      d    tot
    1  0.000  0.000  0.021  0.021
    2  0.012  0.001  0.013  0.026
    3  0.004  0.001  0.010  0.015
    4  0.012  0.001  0.013  0.026
    5  0.000  0.000  0.031  0.032
    6  0.002  0.000  0.016  0.018
    7  0.004  0.001  0.010  0.015
    8  0.002  0.000  0.016  0.018
    9  0.000  0.002  0.007  0.008
   10  0.000  0.000  0.008  0.008
   11  0.000  0.001  0.041  0.042
   12  0.000  0.000  0.017  0.018
   13  0.000  0.001  0.041  0.042
   14  0.000  0.000  0.047  0.047
   15  0.000  0.000  0.045  0.045
   16  0.000  0.000  0.017  0.018