PROCAR new format
# of k-points:   10         # of bands:  252         # of ions:   37

 k-point     1 :    0.00000000 0.00000000 0.00000000     weight = 0.01562500

band     1 # energy  -13.09935685 # occ.  2.00000000
 
ion      s      p      d    tot
    1  0.000  0.000  0.000  0.000
    2  0.000  0.000  0.000  0.000
    3  0.000  0.000  0.000  0.000
    4  0.000  0.000  0.000  0.000
    5  0.000  0.000  0.000  0.000
    6  0.000  0.000  0.000  0.000
    7  0.000  0.000  0.000  0.000
    8  0.000  0.000  0.000  0.000
    9  0.000  0.000  0.000  0.000
   10  0.000  0.000  0.000  0.000
   11  0.000  0.000  0.000  0.000
   12  0.000  0.000  0.000  0.000
   13  0.000  0.000  0.000  0.000
   14  0.000  0.000  0.000  0.000
   15  0.000  0.000  0.000  0.000
   16  0.000  0.000  0.000  0.000
   17  0.000  0.000  0.000  0.000
   18  0.000  0.000  0.000  0.000
   19  0.000  0.000  0.000  0.000
   20  0.000  0.000  0.000  0.000
   21  0.000  0.000  0.000  0.000
   22  0.000  0.000  0.000  0.000
   23  0.000  0.000  0.000  0.000
   24  0.000  0.000  0.000  0.000
   25  0.000  0.000  0.000  0.000
   26  0.000  0.000  0.000  0.000
   27  0.000  0.000  0.000  0.000
   28  0.000  0.000  0.000  0.000
   29  0.000  0.000  0.000  0.001
   30  0.000  0.000  0.000  0.001
   31  0.000  0.000  0.000  0.001
   32  0.000  0.000  0.000  0.001
   33  0.000  0.000  0.000  0.001
   34  0.000  0.000  0.000  0.001
   35  0.000  0.000  0.000  0.000
   36  0.075  0.082  0.118  0.276
   37  0.633  0.018  0.000  0.651
tot    0.710  0.100  0.120  0.931
 
band     2 # energy   -6.33665943 # occ.  2.00000000
 
ion      s      p      d    tot
    1  0.006  0.001  0.000  0.007
    2  0.006  0.001  0.000  0.007
    3  0.006  0.001  0.000  0.007
    4  0.006  0.001  0.000  0.007
    5  0.006  0.001  0.000  0.007
    6  0.006  0.001  0.000  0.007
    7  0.006  0.001  0.000  0.007
    8  0.006  0.001  0.000  0.007
    9  0.006  0.001  0.000  0.007
   10  0.024  0.000  0.000  0.024
   11  0.024  0.000  0.000  0.025
   12  0.024  0.000  0.000  0.024
   13  0.024  0.000  0.000  0.025
   14  0.024  0.000  0.000  0.025
   15  0.023  0.000  0.000  0.024
   16  0.024  0.000  0.000  0.024
   17  0.023  0.000  0.000  0.024
   18  0.023  0.000  0.000  0.024
   19  0.022  0.000  0.000  0.023
   20  0.025  0.000  0.000  0.026
   21  0.025  0.000  0.000  0.026
   22  0.023  0.000  0.000  0.023
   23  0.025  0.000  0.000  0.026
   24  0.023  0.000  0.000  0.023
   25  0.022  0.000  0.000  0.023
   26  0.022  0.000  0.000  0.023
   27  0.023  0.000  0.000  0.023
   28  0.005  0.001  0.000  0.006
   29  0.005  0.001  0.000  0.006
   30  0.005  0.001  0.000  0.006
   31  0.005  0.001  0.000  0.006
   32  0.005  0.001  0.000  0.006
   33  0.005  0.001  0.000  0.006
   34  0.005  0.001  0.000  0.006
   35  0.005  0.001  0.000  0.006
   36  0.004  0.002  0.000  0.006
   37  0.001  0.000  0.000  0.001
tot    0.523  0.014  0.007  0.545
 
band     3 # energy   -5.46641491 # occ.  2.00000000
 
ion      s      p      d    tot
    1  0.007  0.000  0.000  0.008
    2  0.007  0.000  0.000  0.008
    3  0.007  0.000  0.000  0.008
    4  0.007  0.000  0.000  0.008
    5  0.007  0.000  0.000  0.008
    6  0.007  0.000  0.000  0.008
    7  0.007  0.000  0.000  0.008
    8  0.007  0.000  0.000  0.008
    9  0.008  0.000  0.000  0.008
   10  0.011  0.001  0.016  0.028
   11  0.010  0.001  0.016  0.027
   12  0.011  0.001  0.016  0.028
   13  0.010  0.001  0.016  0.027
   14  0.010  0.001  0.016  0.027
   15  0.011  0.001  0.014  0.026
   16  0.011  0.001  0.016  0.028
   17  0.011  0.001  0.014  0.026
   18  0.011  0.001  0.014  0.026
   19  0.012  0.001  0.019  0.031
   20  0.015  0.001  0.023  0.038
   21  0.015  0.001  0.023  0.038
   22  0.012  0.001  0.018  0.030
   23  0.015  0.001  0.023  0.038
   24  0.012  0.001  0.018  0.030
   25  0.012  0.001  0.019  0.031
   26  0.012  0.001  0.019  0.031
   27  0.012  0.001  0.018  0.030
   28  0.005  0.000  0.000  0.006
   29  0.005  0.000  0.000  0.005
   30  0.005  0.000  0.000  0.005
   31  0.005  0.000  0.000  0.005
   32  0.005  0.000  0.000  0.005
   33  0.005  0.000  0.000  0.005
   34  0.005  0.000  0.000  0.005
   35  0.005  0.000  0.000  0.005
   36  0.004  0.001  0.000  0.006
   37  0.001  0.000  0.000  0.001
tot    0.321  0.025  0.322  0.669
 
band     4 # energy   -5.16856994 # occ.  2.00000000
 
ion      s      p      d    tot
    1  0.017  0.000  0.029  0.046
    2  0.017  0.000  0.027  0.045
    3  0.017  0.000  0.027  0.045
    4  0.017  0.000  0.027  0.045
    5  0.017  0.000  0.028  0.045
    6  0.017  0.000  0.027  0.045
    7  0.017  0.000  0.027  0.045
    8  0.017  0.000  0.027  0.045
    9  0.018  0.000  0.026  0.044
   10  0.000  0.001  0.021  0.022
   11  0.001  0.001  0.023  0.025
   12  0.000  0.001  0.021  0.022
   13  0.001  0.001  0.023  0.025
   14  0.001  0.001  0.023  0.025
   15  0.000  0.001  0.022  0.022
   16  0.000  0.001  0.021  0.022
   17  0.000  0.001  0.022  0.022
   18  0.000  0.001  0.022  0.023
   19  0.000  0.000  0.005  0.005
   20  0.000  0.000  0.008  0.008
   21  0.000  0.000  0.008  0.008
   22  0.000  0.000  0.008  0.008
   23  0.000  0.000  0.008  0.008
   24  0.000  0.000  0.008  0.008
   25  0.000  0.000  0.005  0.005
   26  0.000  0.000  0.005  0.005
   27  0.000  0.000  0.008  0.008
   28  0.005  0.000  0.005  0.009
   29  0.004  0.000  0.005  0.009
   30  0.004  0.000  0.005  0.009
   31  0.004  0.000  0.005  0.009
   32  0.004  0.000  0.005  0.009
   33  0.004  0.000  0.005  0.009
   34  0.004  0.000  0.005  0.009
   35  0.005  0.000  0.005  0.010
   36  0.003  0.000  0.002  0.005
   37  0.000  0.000  0.000  0.000
tot    0.201  0.007  0.549  0.757
 
band     5 # energy   -5.10857600 # occ.  2.00000000
 
ion      s      p      d    tot
    1  0.005  0.001  0.001  0.007
    2  0.000  0.000  0.004  0.004
    3  0.000  0.000  0.004  0.004
    4  0.000  0.000  0.004  0.004
    5  0.001  0.000  0.000  0.001
    6  0.000  0.000  0.004  0.004
    7  0.000  0.000  0.004  0.004
    8  0.000  0.000  0.004  0.004
    9  0.001  0.000  0.001  0.002
   10  0.004  0.000  0.030  0.034
   11  0.000  0.000  0.018  0.019
   12  0.004  0.000  0.030  0.034
   13  0.000  0.000  0.018  0.019
   14  0.000  0.000  0.018  0.019
   15  0.006  0.001  0.007  0.013
   16  0.004  0.000  0.030  0.034
   17  0.006  0.001  0.007  0.013
   18  0.006  0.001  0.007  0.013
   19  0.000  0.001  0.038  0.039
   20  0.008  0.000  0.101  0.109
   21  0.008  0.000  0.101  0.109
   22  0.016  0.001  0.007  0.024
   23  0.008  0.000  0.101  0.109
   24  0.016  0.001  0.007  0.024
   25  0.000  0.001  0.038  0.039
   26  0.000  0.001  0.038  0.039
   27  0.016  0.001  0.007  0.024
   28  0.000  0.000  0.001  0.002
   29  0.000  0.000  0.004  0.005
   30  0.000  0.000  0.004  0.005
   31  0.000  0.000  0.004  0.005
   32  0.000  0.000  0.004  0.005
   33  0.000  0.000  0.004  0.005
   34  0.000  0.000  0.004  0.005
   35  0.005  0.001  0.002  0.008
   36  0.006  0.003  0.007  0.016
   37  0.001  0.003  0.000  0.004
tot    0.125  0.019  0.667  0.811
 
band     6 # energy   -5.06236953 # occ.  2.00000000
 
ion      s      p      d    tot
    1  0.000  0.000  0.008  0.008
    2  0.001  0.000  0.003  0.003
    3  0.001  0.000  0.003  0.005
    4  0.001  0.000  0.003  0.003
    5  0.000  0.000  0.004  0.004
    6  0.000  0.000  0.003  0.003
    7  0.001  0.000  0.003  0.005
    8  0.000  0.000  0.003  0.003
    9  0.000  0.000  0.002  0.002
   10  0.000  0.001  0.026  0.027
   11  0.002  0.000  0.029  0.032
   12  0.012  0.001  0.018  0.030
   13  0.002  0.000  0.029  0.031
   14  0.000  0.001  0.020  0.021
   15  0.004  0.000  0.017  0.022
   16  0.012  0.001  0.017  0.030
   17  0.004  0.000  0.017  0.022
   18  0.000  0.000  0.042  0.042
   19  0.015  0.001  0.030  0.046
   20  0.000  0.000  0.130  0.130
   21  0.018  0.001  0.038  0.057
   22  0.000  0.000  0.036  0.036
   23  0.018  0.001  0.036  0.055
   24  0.000  0.001  0.053  0.054
   25  0.000  0.001  0.018  0.019
   26  0.014  0.001  0.030  0.045
   27  0.000  0.000  0.035  0.036
   28  0.000  0.000  0.004  0.004
   29  0.001  0.000  0.005  0.006
   30  0.000  0.000  0.002  0.002
   31  0.001  0.000  0.005  0.006
   32  0.001  0.001  0.005  0.007
   33  0.000  0.000  0.002  0.002
   34  0.001  0.001  0.005  0.007
   35  0.000  0.000  0.001  0.001
   36  0.000  0.000  0.003  0.003
   37  0.000  0.000  0.000  0.000
tot    0.111  0.015  0.685  0.811
 
band     7 # energy   -5.06235053 # occ.  2.00000000
 
ion      s      p      d    tot
    1  0.000  0.000  0.008  0.008
    2  0.001  0.000  0.003  0.004
    3  0.000  0.000  0.003  0.003
    4  0.001  0.000  0.003  0.004
    5  0.000  0.000  0.004  0.004
    6  0.001  0.000  0.003  0.004
    7  0.000  0.000  0.003  0.003
    8  0.001  0.000  0.003  0.004
    9  0.000  0.000  0.002  0.002
   10  0.016  0.001  0.015  0.032
   11  0.001  0.001  0.023  0.025
   12  0.004  0.001  0.023  0.028
   13  0.001  0.001  0.023  0.025
   14  0.003  0.000  0.032  0.035
   15  0.001  0.000  0.034  0.036
   16  0.004  0.001  0.023  0.028
   17  0.001  0.000  0.033  0.035
   18  0.006  0.001  0.009  0.015
   19  0.005  0.001  0.022  0.028
   20  0.024  0.001  0.006  0.031
   21  0.006  0.000  0.098  0.104
   22  0.000  0.001  0.047  0.048
   23  0.006  0.000  0.100  0.106
   24  0.000  0.000  0.029  0.030
   25  0.020  0.000  0.034  0.054
   26  0.005  0.001  0.022  0.028
   27  0.000  0.001  0.047  0.048
   28  0.000  0.000  0.004  0.004
   29  0.001  0.000  0.003  0.004
   30  0.001  0.001  0.007  0.008
   31  0.001  0.000  0.003  0.004
   32  0.000  0.000  0.003  0.003
   33  0.001  0.001  0.007  0.008
   34  0.000  0.000  0.003  0.003
   35  0.000  0.000  0.001  0.001
   36  0.000  0.000  0.003  0.003
   37  0.000  0.000  0.000  0.000
tot    0.111  0.015  0.685  0.811
 
band     8 # energy   -5.06035466 # occ.  2.00000000
 
ion      s      p      d    tot
    1  0.000  0.000  0.001  0.002
    2  0.000  0.000  0.006  0.006
    3  0.000  0.000  0.005  0.006
    4  0.000  0.000  0.006  0.006
    5  0.005  0.001  0.003  0.009
    6  0.000  0.000  0.005  0.006
    7  0.000  0.000  0.005  0.006
    8  0.000  0.000  0.005  0.006
    9  0.001  0.000  0.004  0.005
   10  0.008  0.001  0.004  0.014
   11  0.012  0.001  0.044  0.057
   12  0.008  0.001  0.004  0.014
   13  0.012  0.001  0.044  0.057
   14  0.012  0.001  0.044  0.056
   15  0.001  0.000  0.047  0.048
   16  0.008  0.001  0.004  0.014
   17  0.001  0.000  0.047  0.048
   18  0.001  0.000  0.048  0.049
   19  0.013  0.001  0.030  0.043
   20  0.005  0.001  0.016  0.022
   21  0.005  0.001  0.015  0.022
   22  0.001  0.000  0.053  0.054
   23  0.005  0.001  0.015  0.022
   24  0.001  0.000  0.054  0.054
   25  0.012  0.001  0.030  0.043
   26  0.013  0.001  0.030  0.043
   27  0.001  0.000  0.053  0.054
   28  0.003  0.001  0.005  0.009
   29  0.000  0.000  0.003  0.003
   30  0.000  0.000  0.003  0.003
   31  0.000  0.000  0.003  0.003
   32  0.000  0.000  0.003  0.003
   33  0.000  0.000  0.003  0.003
   34  0.000  0.000  0.003  0.003
   35  0.002  0.000  0.004  0.006
   36  0.000  0.000  0.000  0.000
   37  0.000  0.000  0.000  0.000
tot    0.130  0.017  0.653  0.800
 
band     9 # energy   -5.05638681 # occ.  2.00000000
 
ion      s      p      d    tot
    1  0.000  0.000  0.001  0.001
    2  0.000  0.000  0.003  0.004
    3  0.002  0.001  0.006  0.008
    4  0.000  0.000  0.003  0.004
    5  0.000  0.000  0.009  0.010
    6  0.001  0.000  0.004  0.005
    7  0.002  0.001  0.006  0.008
    8  0.001  0.000  0.004  0.005
    9  0.000  0.000  0.005  0.005
   10  0.001  0.000  0.024  0.025
   11  0.006  0.000  0.074  0.081
   12  0.000  0.001  0.044  0.045
   13  0.006  0.000  0.074  0.081
   14  0.027  0.001  0.004  0.031
   15  0.005  0.001  0.019  0.025
   16  0.000  0.001  0.044  0.045
   17  0.005  0.001  0.019  0.025
   18  0.018  0.000  0.033  0.052
   19  0.001  0.000  0.038  0.040
   20  0.007  0.000  0.034  0.042
   21  0.002  0.001  0.020  0.023
   22  0.005  0.001  0.040  0.046
   23  0.002  0.001  0.020  0.023
   24  0.022  0.001  0.009  0.032
   25  0.004  0.001  0.011  0.016
   26  0.001  0.000  0.038  0.040
   27  0.005  0.001  0.040  0.046
   28  0.000  0.000  0.002  0.002
   29  0.002  0.000  0.004  0.006
   30  0.000  0.000  0.002  0.002
   31  0.002  0.000  0.004  0.006
   32  0.001  0.000  0.003  0.004
   33  0.000  0.000  0.002  0.002
   34  0.001  0.000  0.003  0.004
   35  0.000  0.000  0.008  0.008
   36  0.000  0.000  0.000  0.000
   37  0.000  0.000  0.000  0.000
tot    0.128  0.017  0.657  0.802
 
band    10 # energy   -5.05637716 # occ.  2.00000000
 
ion      s      p      d    tot
    1  0.000  0.000  0.001  0.001
    2  0.002  0.001  0.005  0.008
    3  0.000  0.000  0.003  0.003
    4  0.002  0.001  0.005  0.008
    5  0.000  0.000  0.009  0.010
    6  0.001  0.000  0.005  0.006
    7  0.000  0.000  0.003  0.003
    8  0.001  0.000  0.005  0.006
    9  0.000  0.000  0.005  0.005
   10  0.000  0.001  0.052  0.052
   11  0.020  0.001  0.027  0.048
   12  0.000  0.000  0.031  0.032
   13  0.020  0.001  0.027  0.048
   14  0.000  0.000  0.097  0.097
   15  0.013  0.001  0.029  0.043
   16  0.000  0.000  0.031  0.032
   17  0.013  0.001  0.029  0.043
   18  0.000  0.002  0.014  0.016
   19  0.003  0.000  0.020  0.024
   20  0.000  0.001  0.016  0.017
   21  0.006  0.001  0.030  0.036
   22  0.016  0.001  0.020  0.037
   23  0.006  0.001  0.030  0.036
   24  0.000  0.001  0.050  0.051
   25  0.000  0.000  0.048  0.048
   26  0.003  0.000  0.020  0.024
   27  0.016  0.001  0.020  0.037
   28  0.000  0.000  0.002  0.002
   29  0.000  0.000  0.002  0.002
   30  0.002  0.000  0.003  0.006
   31  0.000  0.000  0.002  0.002
   32  0.001  0.000  0.003  0.004
   33  0.002  0.000  0.003  0.006
   34  0.001  0.000  0.003  0.004
   35  0.000  0.000  0.008  0.008
   36  0.000  0.000  0.000  0.000
   37  0.000  0.000  0.000  0.000
tot    0.128  0.017  0.657  0.802
 
band    11 # energy   -5.04075818 # occ.  2.00000000
 
ion      s      p      d    tot
    1  0.001  0.001  0.010  0.013
    2  0.000  0.000  0.009  0.009
    3  0.000  0.000  0.009  0.009
    4  0.000  0.000  0.009  0.009
    5  0.000  0.000  0.004  0.004
    6  0.000  0.000  0.009  0.009
    7  0.000  0.000  0.009  0.009
    8  0.000  0.000  0.009  0.009
    9  0.007  0.001  0.000  0.008
   10  0.005  0.000  0.033  0.038
   11  0.000  0.000  0.060  0.060
   12  0.005  0.000  0.033  0.038
   13  0.000  0.000  0.060  0.060
   14  0.000  0.000  0.060  0.060
   15  0.003  0.000  0.015  0.018
   16  0.005  0.000  0.033  0.038
   17  0.003  0.000  0.015  0.018
   18  0.004  0.000  0.015  0.019
   19  0.004  0.000  0.009  0.013
   20  0.002  0.000  0.041  0.044
   21  0.002  0.000  0.042  0.044
   22  0.001  0.000  0.049  0.050
   23  0.002  0.000  0.042  0.044
   24  0.001  0.000  0.049  0.050
   25  0.004  0.000  0.009  0.013
   26  0.004  0.000  0.009  0.013
   27  0.001  0.000  0.049  0.050
   28  0.006  0.001  0.001  0.008
   29  0.000  0.000  0.010  0.011
   30  0.000  0.000  0.010  0.011
   31  0.000  0.000  0.010  0.011
   32  0.000  0.000  0.010  0.011
   33  0.000  0.000  0.010  0.011
   34  0.000  0.000  0.010  0.011
   35  0.001  0.000  0.011  0.012
   36  0.004  0.001  0.000  0.005
   37  0.000  0.000  0.000  0.000
tot    0.069  0.009  0.759  0.837
 
band    12 # energy   -5.02193538 # occ.  2.00000000
 
ion      s      p      d    tot
    1  0.002  0.000  0.006  0.008
    2  0.000  0.000  0.009  0.009
    3  0.000  0.000  0.009  0.009
    4  0.000  0.000  0.009  0.009
    5  0.002  0.001  0.000  0.003
    6  0.000  0.000  0.009  0.009
    7  0.000  0.000  0.009  0.009
    8  0.000  0.000  0.009  0.009
    9  0.000  0.000  0.010  0.011
   10  0.000  0.000  0.072  0.072
   11  0.005  0.001  0.004  0.009
   12  0.000  0.000  0.072  0.072
   13  0.005  0.001  0.004  0.009
   14  0.005  0.001  0.004  0.009
   15  0.006  0.000  0.060  0.067
   16  0.000  0.000  0.072  0.072
   17  0.006  0.000  0.060  0.067
   18  0.006  0.000  0.060  0.067
   19  0.001  0.000  0.042  0.043
   20  0.001  0.000  0.019  0.020
   21  0.001  0.000  0.019  0.020
   22  0.000  0.000  0.030  0.031
   23  0.001  0.000  0.019  0.020
   24  0.000  0.000  0.030  0.031
   25  0.001  0.000  0.042  0.043
   26  0.001  0.000  0.042  0.043
   27  0.000  0.000  0.030  0.031
   28  0.000  0.000  0.005  0.006
   29  0.000  0.000  0.006  0.006
   30  0.000  0.000  0.006  0.006
   31  0.000  0.000  0.006  0.006
   32  0.000  0.000  0.006  0.006
   33  0.000  0.000  0.006  0.006
   34  0.000  0.000  0.006  0.006
   35  0.002  0.000  0.000  0.003
   36  0.001  0.000  0.002  0.003
   37  0.000  0.001  0.000  0.001
tot    0.047  0.009  0.793  0.848
 
band    13 # energy   -5.01730422 # occ.  2.00000000
 
ion      s      p      d    tot
    1  0.000  0.000  0.016  0.017
    2  0.002  0.000  0.006  0.008
    3  0.000  0.000  0.011  0.011
    4  0.002  0.000  0.006  0.008
    5  0.000  0.000  0.006  0.006
    6  0.002  0.001  0.007  0.009
    7  0.000  0.000  0.011  0.011
    8  0.002  0.001  0.007  0.009
    9  0.000  0.000  0.007  0.007
   10  0.000  0.000  0.067  0.067
   11  0.000  0.000  0.038  0.039
   12  0.010  0.000  0.040  0.051
   13  0.000  0.000  0.039  0.039
   14  0.000  0.001  0.013  0.013
   15  0.008  0.000  0.033  0.041
   16  0.010  0.000  0.041  0.051
   17  0.008  0.000  0.032  0.040
   18  0.000  0.000  0.111  0.111
   19  0.001  0.000  0.029  0.030
   20  0.000  0.000  0.048  0.048
   21  0.002  0.000  0.019  0.021
   22  0.000  0.000  0.026  0.026
   23  0.002  0.000  0.019  0.021
   24  0.000  0.000  0.011  0.011
   25  0.000  0.000  0.040  0.040
   26  0.001  0.000  0.029  0.030
   27  0.000  0.000  0.026  0.026
   28  0.000  0.000  0.011  0.011
   29  0.000  0.000  0.005  0.005
   30  0.002  0.000  0.003  0.006
   31  0.000  0.000  0.005  0.005
   32  0.001  0.000  0.004  0.005
   33  0.002  0.000  0.003  0.006
   34  0.001  0.000  0.004  0.005
   35  0.000  0.000  0.005  0.005
   36  0.000  0.000  0.000  0.001
   37  0.000  0.000  0.000  0.000
tot    0.057  0.008  0.777  0.842
 
band    14 # energy   -5.01727578 # occ.  2.00000000
 
ion      s      p      d    tot
    1  0.000  0.000  0.016  0.017
    2  0.001  0.001  0.010  0.011
    3  0.003  0.001  0.005  0.008
    4  0.001  0.001  0.010  0.011
    5  0.000  0.000  0.006  0.006
    6  0.001  0.000  0.009  0.010
    7  0.003  0.001  0.005  0.008
    8  0.001  0.000  0.009  0.010
    9  0.000  0.000  0.007  0.007
   10  0.013  0.000  0.032  0.046
   11  0.000  0.000  0.021  0.022
   12  0.003  0.000  0.058  0.062
   13  0.000  0.000  0.021  0.021
   14  0.000  0.000  0.047  0.047
   15  0.003  0.000  0.084  0.087
   16  0.003  0.000  0.058  0.061
   17  0.003  0.000  0.085  0.088
   18  0.011  0.000  0.006  0.017
   19  0.000  0.000  0.037  0.037
   20  0.003  0.000  0.009  0.012
   21  0.001  0.000  0.039  0.040
   22  0.000  0.000  0.016  0.016
   23  0.001  0.000  0.038  0.039
   24  0.000  0.000  0.031  0.031
   25  0.001  0.000  0.025  0.027
   26  0.000  0.000  0.037  0.037
   27  0.000  0.000  0.016  0.016
   28  0.000  0.000  0.011  0.011
   29  0.002  0.000  0.003  0.005
   30  0.000  0.000  0.005  0.005
   31  0.002  0.000  0.003  0.005
   32  0.001  0.000  0.004  0.006
   33  0.000  0.000  0.005  0.005
   34  0.001  0.000  0.004  0.006
   35  0.000  0.000  0.005  0.005
   36  0.000  0.000  0.000  0.001
   37  0.000  0.000  0.000  0.000
tot    0.057  0.008  0.777  0.842
 
band    15 # energy   -5.00143053 # occ.  2.00000000
 
ion      s      p      d    tot
    1  0.000  0.000  0.006  0.006
    2  0.004  0.000  0.006  0.011
    3  0.000  0.000  0.010  0.011
    4  0.004  0.000  0.006  0.011
    5  0.000  0.000  0.012  0.012
    6  0.002  0.001  0.008  0.010
    7  0.000  0.000  0.010  0.011
    8  0.002  0.001  0.008  0.010
    9  0.000  0.000  0.019  0.019
   10  0.006  0.000  0.019  0.025
   11  0.002  0.000  0.049  0.051
   12  0.002  0.000  0.036  0.038
   13  0.002  0.000  0.048  0.050
   14  0.008  0.000  0.012  0.020
   15  0.000  0.000  0.025  0.025
   16  0.001  0.000  0.036  0.038
   17  0.000  0.000  0.025  0.026
   18  0.000  0.000  0.044  0.044
   19  0.002  0.000  0.059  0.061
   20  0.000  0.000  0.046  0.047
   21  0.000  0.000  0.022  0.023
   22  0.003  0.000  0.055  0.058
   23  0.000  0.000  0.022  0.022
   24  0.012  0.000  0.019  0.031
   25  0.007  0.000  0.008  0.016
   26  0.002  0.000  0.058  0.060
   27  0.003  0.000  0.056  0.059
   28  0.000  0.000  0.004  0.004
   29  0.000  0.000  0.007  0.007
   30  0.001  0.000  0.001  0.003
   31  0.000  0.000  0.007  0.007
   32  0.001  0.001  0.007  0.009
   33  0.001  0.000  0.001  0.003
   34  0.001  0.001  0.007  0.009
   35  0.000  0.000  0.007  0.007
   36  0.000  0.000  0.001  0.001
   37  0.000  0.000  0.000  0.000
tot    0.066  0.008  0.766  0.841
 
band    16 # energy   -5.00138840 # occ.  2.00000000
 
ion      s      p      d    tot
    1  0.000  0.000  0.006  0.006
    2  0.000  0.000  0.010  0.010
    3  0.003  0.001  0.006  0.010
    4  0.000  0.000  0.010  0.010
    5  0.000  0.000  0.012  0.012
    6  0.002  0.000  0.008  0.011
    7  0.004  0.001  0.006  0.010
    8  0.002  0.000  0.008  0.011
    9  0.000  0.000  0.019  0.019
   10  0.000  0.000  0.042  0.042
   11  0.006  0.000  0.024  0.030
   12  0.004  0.000  0.025  0.029
   13  0.006  0.000  0.024  0.030
   14  0.000  0.000  0.060  0.060
   15  0.000  0.000  0.038  0.038
   16  0.004  0.000  0.024  0.029
   17  0.000  0.000  0.037  0.038
   18  0.000  0.000  0.019  0.019
   19  0.006  0.000  0.024  0.030
   20  0.000  0.000  0.014  0.014
   21  0.000  0.000  0.038  0.038
   22  0.009  0.000  0.032  0.041
   23  0.000  0.000  0.038  0.039
   24  0.000  0.000  0.068  0.068
   25  0.000  0.000  0.076  0.076
   26  0.006  0.000  0.025  0.031
   27  0.009  0.000  0.031  0.040
   28  0.000  0.000  0.004  0.004
   29  0.002  0.001  0.003  0.006
   30  0.000  0.000  0.009  0.009
   31  0.002  0.001  0.003  0.006
   32  0.001  0.000  0.003  0.004
   33  0.000  0.000  0.009  0.009
   34  0.001  0.000  0.003  0.004
   35  0.000  0.000  0.007  0.008
   36  0.000  0.000  0.001  0.001
   37  0.000  0.000  0.000  0.000
tot    0.066  0.008  0.766  0.841
 
band    17 # energy   -4.95602067 # occ.  2.00000000
 
ion      s      p      d    tot
    1  0.004  0.000  0.004  0.008
    2  0.002  0.000  0.009  0.011
    3  0.002  0.000  0.009  0.011
    4  0.002  0.000  0.009  0.011
    5  0.002  0.000  0.010  0.013
    6  0.002  0.000  0.009  0.011
    7  0.002  0.000  0.009  0.011
    8  0.002  0.000  0.009  0.011
    9  0.001  0.000  0.011  0.012
   10  0.001  0.000  0.007  0.007
   11  0.002  0.000  0.007  0.009
   12  0.001  0.000  0.007  0.007
   13  0.002  0.000  0.007  0.009
   14  0.002  0.000  0.007  0.009
   15  0.002  0.000  0.009  0.011
   16  0.001  0.000  0.007  0.007
   17  0.002  0.000  0.009  0.011
   18  0.002  0.000  0.009  0.011
   19  0.001  0.001  0.012  0.013
   20  0.000  0.001  0.024  0.026
   21  0.000  0.001  0.024  0.026
   22  0.000  0.001  0.023  0.024
   23  0.000  0.001  0.024  0.026
   24  0.000  0.001  0.023  0.024
   25  0.001  0.001  0.011  0.013
   26  0.001  0.001  0.012  0.013
   27  0.000  0.001  0.023  0.024
   28  0.015  0.000  0.033  0.048
   29  0.016  0.000  0.032  0.048
   30  0.016  0.000  0.032  0.048
   31  0.016  0.000  0.032  0.048
   32  0.016  0.000  0.032  0.048
   33  0.016  0.000  0.032  0.048
   34  0.016  0.000  0.032  0.048
   35  0.020  0.000  0.034  0.054
   36  0.008  0.000  0.010  0.018
   37  0.001  0.000  0.000  0.001
tot    0.175  0.009  0.594  0.777
 
band    18 # energy   -4.87684459 # occ.  2.00000000
 
ion      s      p      d    tot
    1  0.000  0.000  0.000  0.001
    2  0.000  0.000  0.006  0.006
    3  0.000  0.000  0.006  0.006
    4  0.000  0.000  0.006  0.006
    5  0.000  0.000  0.016  0.016
    6  0.000  0.000  0.006  0.006
    7  0.000  0.000  0.006  0.006
    8  0.000  0.000  0.006  0.006
    9  0.001  0.001  0.008  0.009
   10  0.000  0.000  0.011  0.011
   11  0.000  0.000  0.071  0.071
   12  0.000  0.000  0.011  0.011
   13  0.000  0.000  0.071  0.071
   14  0.000  0.000  0.071  0.071
   15  0.001  0.001  0.043  0.045
   16  0.000  0.000  0.011  0.011
   17  0.001  0.001  0.043  0.045
   18  0.001  0.001  0.043  0.045
   19  0.000  0.000  0.019  0.019
   20  0.001  0.000  0.069  0.070
   21  0.001  0.000  0.068  0.070
   22  0.003  0.000  0.021  0.024
   23  0.001  0.000  0.068  0.070
   24  0.003  0.000  0.021  0.023
   25  0.000  0.000  0.019  0.019
   26  0.000  0.000  0.019  0.019
   27  0.003  0.000  0.021  0.024
   28  0.006  0.001  0.000  0.007
   29  0.001  0.000  0.011  0.012
   30  0.001  0.000  0.011  0.012
   31  0.001  0.000  0.011  0.012
   32  0.001  0.000  0.011  0.012
   33  0.001  0.000  0.011  0.012
   34  0.001  0.000  0.011  0.012
   35  0.000  0.000  0.000  0.000
   36  0.001  0.001  0.005  0.007
   37  0.000  0.001  0.000  0.002
tot    0.026  0.015  0.826  0.867
 
band    19 # energy   -4.85265107 # occ.  2.00000000
 
ion      s      p      d    tot
    1  0.000  0.000  0.001  0.001
    2  0.001  0.001  0.008  0.009
    3  0.000  0.000  0.009  0.009
    4  0.001  0.001  0.008  0.010
    5  0.000  0.001  0.014  0.014
    6  0.001  0.000  0.005  0.006
    7  0.000  0.000  0.009  0.010
    8  0.001  0.000  0.005  0.006
    9  0.000  0.001  0.013  0.013
   10  0.000  0.001  0.025  0.027
   11  0.000  0.000  0.080  0.080
   12  0.000  0.000  0.023  0.024
   13  0.000  0.000  0.084  0.085
   14  0.001  0.000  0.037  0.039
   15  0.001  0.000  0.026  0.027
   16  0.000  0.001  0.023  0.024
   17  0.001  0.000  0.024  0.025
   18  0.002  0.001  0.042  0.045
   19  0.001  0.000  0.010  0.011
   20  0.004  0.000  0.046  0.050
   21  0.001  0.000  0.075  0.076
   22  0.000  0.000  0.039  0.039
   23  0.001  0.000  0.072  0.073
   24  0.000  0.001  0.020  0.021
   25  0.002  0.001  0.031  0.034
   26  0.000  0.000  0.008  0.009
   27  0.000  0.000  0.037  0.038
   28  0.000  0.000  0.006  0.007
   29  0.001  0.000  0.005  0.006
   30  0.000  0.000  0.007  0.008
   31  0.000  0.000  0.005  0.006
   32  0.002  0.001  0.006  0.008
   33  0.000  0.000  0.007  0.008
   34  0.002  0.001  0.005  0.008
   35  0.000  0.000  0.002  0.002
   36  0.000  0.001  0.004  0.006
   37  0.000  0.000  0.000  0.000
tot    0.025  0.016  0.823  0.864
 
band    20 # energy   -4.85264633 # occ.  2.00000000
 
ion      s      p      d    tot
    1  0.000  0.000  0.001  0.001
    2  0.000  0.000  0.007  0.008
    3  0.002  0.001  0.005  0.008
    4  0.000  0.000  0.007  0.007
    5  0.000  0.001  0.014  0.014
    6  0.001  0.000  0.010  0.011
    7  0.001  0.001  0.005  0.007
    8  0.000  0.000  0.010  0.011
    9  0.000  0.001  0.013  0.013
   10  0.000  0.000  0.024  0.024
   11  0.001  0.000  0.055  0.056
   12  0.000  0.001  0.024  0.025
   13  0.001  0.000  0.050  0.051
   14  0.000  0.000  0.097  0.097
   15  0.002  0.000  0.036  0.038
   16  0.000  0.001  0.024  0.025
   17  0.002  0.001  0.038  0.040
   18  0.000  0.000  0.019  0.019
   19  0.002  0.001  0.023  0.025
   20  0.000  0.000  0.083  0.083
   21  0.003  0.000  0.054  0.057
   22  0.000  0.001  0.025  0.026
   23  0.003  0.000  0.057  0.059
   24  0.000  0.000  0.044  0.044
   25  0.000  0.000  0.002  0.002
   26  0.002  0.001  0.025  0.028
   27  0.000  0.001  0.027  0.028
   28  0.000  0.000  0.006  0.007
   29  0.001  0.001  0.007  0.009
   30  0.001  0.001  0.005  0.006
   31  0.001  0.001  0.007  0.009
   32  0.000  0.000  0.006  0.006
   33  0.002  0.001  0.005  0.007
   34  0.000  0.000  0.007  0.007
   35  0.000  0.000  0.002  0.002
   36  0.000  0.001  0.004  0.006
   37  0.000  0.000  0.000  0.000
tot    0.025  0.016  0.823  0.864
 
band    21 # energy   -4.84596698 # occ.  2.00000000
 
ion      s      p      d    tot
    1  0.000  0.000  0.008  0.008
    2  0.000  0.000  0.011  0.012
    3  0.000  0.000  0.011  0.012
    4  0.000  0.000  0.011  0.012
    5  0.004  0.001  0.001  0.006
    6  0.000  0.000  0.011  0.012
    7  0.000  0.000  0.011  0.012
    8  0.000  0.000  0.011  0.012
    9  0.002  0.000  0.003  0.005
   10  0.002  0.001  0.053  0.055
   11  0.000  0.000  0.030  0.031
   12  0.002  0.001  0.053  0.056
   13  0.000  0.000  0.030  0.031
   14  0.000  0.000  0.030  0.031
   15  0.002  0.000  0.024  0.026
   16  0.002  0.001  0.053  0.056
   17  0.002  0.000  0.024  0.026
   18  0.002  0.000  0.025  0.027
   19  0.002  0.001  0.052  0.054
   20  0.001  0.000  0.016  0.017
   21  0.001  0.000  0.017  0.018
   22  0.000  0.001  0.043  0.044
   23  0.001  0.000  0.017  0.018
   24  0.000  0.001  0.043  0.044
   25  0.002  0.001  0.052  0.054
   26  0.002  0.001  0.052  0.054
   27  0.000  0.001  0.043  0.044
   28  0.000  0.000  0.012  0.012
   29  0.000  0.000  0.009  0.010
   30  0.000  0.000  0.009  0.010
   31  0.000  0.000  0.009  0.010
   32  0.000  0.000  0.009  0.010
   33  0.000  0.000  0.009  0.010
   34  0.000  0.000  0.009  0.010
   35  0.004  0.001  0.003  0.008
   36  0.002  0.000  0.000  0.003