PROCAR new format
# of k-points:   10         # of bands:  252         # of ions:   38

 k-point     1 :    0.00000000 0.00000000 0.00000000     weight = 0.01562500

band     1 # energy  -22.14210658 # occ.  2.00000000
 
ion      s      p      d    tot
    1  0.000  0.000  0.000  0.000
    2  0.000  0.000  0.000  0.000
    3  0.000  0.000  0.000  0.000
    4  0.000  0.000  0.000  0.000
    5  0.000  0.000  0.000  0.000
    6  0.000  0.000  0.000  0.000
    7  0.000  0.000  0.000  0.000
    8  0.000  0.000  0.000  0.000
    9  0.000  0.000  0.000  0.000
   10  0.000  0.000  0.000  0.000
   11  0.000  0.000  0.000  0.000
   12  0.000  0.000  0.000  0.000
   13  0.000  0.000  0.000  0.000
   14  0.000  0.000  0.000  0.000
   15  0.000  0.000  0.000  0.000
   16  0.000  0.000  0.000  0.000
   17  0.000  0.000  0.000  0.000
   18  0.000  0.000  0.000  0.000
   19  0.000  0.000  0.000  0.000
   20  0.000  0.000  0.000  0.000
   21  0.000  0.000  0.000  0.000
   22  0.000  0.000  0.000  0.000
   23  0.000  0.000  0.000  0.000
   24  0.000  0.000  0.000  0.000
   25  0.000  0.000  0.000  0.000
   26  0.000  0.000  0.000  0.000
   27  0.000  0.000  0.000  0.000
   28  0.000  0.000  0.000  0.000
   29  0.000  0.000  0.000  0.000
   30  0.000  0.000  0.000  0.000
   31  0.000  0.000  0.000  0.000
   32  0.000  0.000  0.000  0.000
   33  0.000  0.000  0.000  0.000
   34  0.000  0.000  0.000  0.000
   35  0.000  0.000  0.000  0.000
   36  0.000  0.000  0.000  0.000
   37  0.158  0.115  0.000  0.273
   38  0.637  0.094  0.000  0.732
tot    0.795  0.210  0.000  1.005
 
band     2 # energy   -8.16286736 # occ.  2.00000000
 
ion      s      p      d    tot
    1  0.005  0.000  0.000  0.006
    2  0.005  0.000  0.000  0.005
    3  0.005  0.000  0.000  0.005
    4  0.005  0.000  0.000  0.005
    5  0.005  0.000  0.000  0.005
    6  0.005  0.000  0.000  0.005
    7  0.005  0.000  0.000  0.005
    8  0.005  0.000  0.000  0.005
    9  0.005  0.000  0.000  0.005
   10  0.021  0.000  0.000  0.021
   11  0.021  0.000  0.000  0.022
   12  0.021  0.000  0.000  0.021
   13  0.021  0.000  0.000  0.022
   14  0.021  0.000  0.000  0.022
   15  0.020  0.000  0.000  0.020
   16  0.021  0.000  0.000  0.021
   17  0.020  0.000  0.000  0.020
   18  0.020  0.000  0.000  0.020
   19  0.020  0.000  0.000  0.020
   20  0.026  0.000  0.000  0.026
   21  0.026  0.000  0.000  0.026
   22  0.020  0.000  0.000  0.021
   23  0.026  0.000  0.000  0.026
   24  0.020  0.000  0.000  0.021
   25  0.020  0.000  0.000  0.020
   26  0.020  0.000  0.000  0.020
   27  0.020  0.000  0.000  0.021
   28  0.005  0.000  0.000  0.005
   29  0.006  0.000  0.000  0.006
   30  0.006  0.000  0.000  0.006
   31  0.006  0.000  0.000  0.006
   32  0.006  0.000  0.000  0.006
   33  0.006  0.000  0.000  0.006
   34  0.006  0.000  0.000  0.006
   35  0.005  0.000  0.000  0.005
   36  0.022  0.001  0.011  0.033
   37  0.044  0.002  0.000  0.046
   38  0.020  0.025  0.000  0.045
tot    0.558  0.037  0.014  0.609
 
band     3 # energy   -7.85176220 # occ.  2.00000000
 
ion      s      p      d    tot
    1  0.002  0.000  0.000  0.002
    2  0.002  0.000  0.000  0.003
    3  0.002  0.000  0.000  0.003
    4  0.002  0.000  0.000  0.003
    5  0.002  0.000  0.000  0.003
    6  0.002  0.000  0.000  0.003
    7  0.002  0.000  0.000  0.003
    8  0.002  0.000  0.000  0.003
    9  0.002  0.000  0.000  0.003
   10  0.007  0.000  0.000  0.007
   11  0.007  0.000  0.000  0.007
   12  0.007  0.000  0.000  0.007
   13  0.007  0.000  0.000  0.007
   14  0.007  0.000  0.000  0.007
   15  0.007  0.000  0.000  0.007
   16  0.007  0.000  0.000  0.007
   17  0.007  0.000  0.000  0.007
   18  0.007  0.000  0.000  0.007
   19  0.003  0.000  0.000  0.003
   20  0.001  0.001  0.001  0.003
   21  0.001  0.001  0.001  0.003
   22  0.003  0.000  0.000  0.004
   23  0.001  0.001  0.001  0.003
   24  0.003  0.000  0.000  0.004
   25  0.003  0.000  0.000  0.003
   26  0.003  0.000  0.000  0.003
   27  0.003  0.000  0.000  0.004
   28  0.000  0.000  0.000  0.000
   29  0.000  0.000  0.001  0.001
   30  0.000  0.000  0.001  0.001
   31  0.000  0.000  0.001  0.001
   32  0.000  0.000  0.001  0.001
   33  0.000  0.000  0.001  0.001
   34  0.000  0.000  0.001  0.001
   35  0.000  0.000  0.000  0.000
   36  0.025  0.017  0.045  0.087
   37  0.227  0.004  0.000  0.230
   38  0.117  0.183  0.000  0.301
tot    0.475  0.210  0.054  0.739
 
band     4 # energy   -6.91905686 # occ.  2.00000000
 
ion      s      p      d    tot
    1  0.017  0.000  0.001  0.018
    2  0.016  0.000  0.001  0.018
    3  0.016  0.000  0.001  0.018
    4  0.016  0.000  0.001  0.018
    5  0.016  0.000  0.001  0.017
    6  0.016  0.000  0.001  0.018
    7  0.016  0.000  0.001  0.018
    8  0.016  0.000  0.001  0.018
    9  0.016  0.000  0.001  0.018
   10  0.010  0.001  0.002  0.013
   11  0.009  0.002  0.002  0.013
   12  0.010  0.001  0.002  0.013
   13  0.009  0.002  0.002  0.013
   14  0.009  0.002  0.002  0.013
   15  0.009  0.002  0.002  0.013
   16  0.010  0.001  0.002  0.013
   17  0.009  0.002  0.002  0.013
   18  0.009  0.002  0.002  0.013
   19  0.015  0.001  0.004  0.019
   20  0.014  0.001  0.004  0.019
   21  0.014  0.001  0.004  0.019
   22  0.016  0.001  0.004  0.020
   23  0.014  0.001  0.004  0.019
   24  0.016  0.001  0.004  0.020
   25  0.015  0.001  0.004  0.019
   26  0.015  0.001  0.004  0.019
   27  0.016  0.001  0.004  0.020
   28  0.014  0.001  0.000  0.015
   29  0.013  0.001  0.001  0.014
   30  0.013  0.001  0.001  0.014
   31  0.013  0.001  0.001  0.014
   32  0.013  0.001  0.001  0.014
   33  0.013  0.001  0.001  0.014
   34  0.013  0.001  0.001  0.014
   35  0.014  0.001  0.000  0.015
   36  0.007  0.001  0.001  0.010
   37  0.007  0.001  0.000  0.008
   38  0.006  0.020  0.000  0.026
tot    0.485  0.052  0.072  0.609
 
band     5 # energy   -6.00986764 # occ.  2.00000000
 
ion      s      p      d    tot
    1  0.001  0.001  0.014  0.016
    2  0.008  0.000  0.010  0.019
    3  0.008  0.000  0.010  0.019
    4  0.008  0.000  0.010  0.019
    5  0.004  0.000  0.006  0.011
    6  0.008  0.000  0.010  0.019
    7  0.008  0.000  0.010  0.019
    8  0.008  0.000  0.010  0.019
    9  0.031  0.001  0.004  0.036
   10  0.014  0.001  0.018  0.033
   11  0.012  0.002  0.011  0.026
   12  0.014  0.001  0.018  0.033
   13  0.012  0.002  0.011  0.026
   14  0.012  0.002  0.011  0.025
   15  0.006  0.001  0.015  0.022
   16  0.014  0.001  0.018  0.033
   17  0.006  0.001  0.015  0.022
   18  0.006  0.001  0.015  0.022
   19  0.000  0.001  0.014  0.015
   20  0.018  0.001  0.014  0.034
   21  0.018  0.001  0.014  0.034
   22  0.010  0.002  0.002  0.013
   23  0.018  0.001  0.014  0.034
   24  0.010  0.002  0.002  0.013
   25  0.000  0.001  0.014  0.015
   26  0.000  0.001  0.014  0.015
   27  0.010  0.002  0.002  0.013
   28  0.007  0.000  0.001  0.007
   29  0.004  0.000  0.005  0.009
   30  0.004  0.000  0.005  0.009
   31  0.004  0.000  0.005  0.009
   32  0.004  0.000  0.005  0.009
   33  0.004  0.000  0.005  0.009
   34  0.004  0.000  0.005  0.009
   35  0.015  0.001  0.001  0.017
   36  0.002  0.001  0.009  0.012
   37  0.000  0.002  0.000  0.002
   38  0.001  0.003  0.000  0.004
tot    0.314  0.036  0.349  0.699
 
band     6 # energy   -5.99061430 # occ.  2.00000000
 
ion      s      p      d    tot
    1  0.031  0.000  0.008  0.039
    2  0.013  0.000  0.015  0.028
    3  0.013  0.000  0.015  0.028
    4  0.013  0.000  0.015  0.028
    5  0.013  0.000  0.015  0.028
    6  0.013  0.000  0.015  0.028
    7  0.013  0.000  0.015  0.028
    8  0.013  0.000  0.015  0.028
    9  0.003  0.001  0.016  0.020
   10  0.000  0.000  0.030  0.031
   11  0.003  0.001  0.020  0.024
   12  0.000  0.000  0.030  0.031
   13  0.003  0.001  0.020  0.024
   14  0.003  0.001  0.020  0.024
   15  0.027  0.002  0.011  0.040
   16  0.000  0.000  0.030  0.031
   17  0.027  0.002  0.011  0.040
   18  0.027  0.002  0.011  0.040
   19  0.001  0.001  0.009  0.010
   20  0.008  0.000  0.014  0.022
   21  0.008  0.000  0.014  0.022
   22  0.008  0.002  0.004  0.014
   23  0.008  0.000  0.014  0.022
   24  0.008  0.002  0.004  0.014
   25  0.001  0.001  0.008  0.010
   26  0.001  0.001  0.009  0.010
   27  0.008  0.002  0.004  0.014
   28  0.001  0.000  0.000  0.001
   29  0.001  0.000  0.001  0.002
   30  0.001  0.000  0.001  0.002
   31  0.001  0.000  0.001  0.002
   32  0.001  0.000  0.001  0.002
   33  0.001  0.000  0.001  0.002
   34  0.001  0.000  0.001  0.002
   35  0.001  0.000  0.001  0.002
   36  0.008  0.000  0.004  0.012
   37  0.000  0.006  0.000  0.006
   38  0.002  0.015  0.000  0.017
tot    0.280  0.041  0.403  0.725
 
band     7 # energy   -5.98211006 # occ.  2.00000000
 
ion      s      p      d    tot
    1  0.000  0.000  0.008  0.009
    2  0.003  0.001  0.003  0.007
    3  0.001  0.000  0.003  0.004
    4  0.003  0.001  0.003  0.007
    5  0.000  0.001  0.007  0.008
    6  0.007  0.001  0.004  0.011
    7  0.001  0.000  0.003  0.004
    8  0.007  0.001  0.004  0.011
    9  0.000  0.000  0.001  0.001
   10  0.037  0.002  0.005  0.044
   11  0.013  0.003  0.021  0.037
   12  0.009  0.001  0.029  0.039
   13  0.013  0.003  0.021  0.037
   14  0.052  0.001  0.012  0.064
   15  0.000  0.003  0.007  0.010
   16  0.009  0.001  0.029  0.039
   17  0.000  0.003  0.007  0.010
   18  0.001  0.000  0.012  0.014
   19  0.002  0.003  0.006  0.011
   20  0.062  0.001  0.010  0.073
   21  0.016  0.002  0.029  0.046
   22  0.004  0.001  0.021  0.026
   23  0.015  0.002  0.029  0.046
   24  0.016  0.002  0.005  0.023
   25  0.010  0.000  0.013  0.023
   26  0.002  0.003  0.006  0.011
   27  0.004  0.001  0.021  0.026
   28  0.000  0.000  0.001  0.001
   29  0.006  0.001  0.004  0.011
   30  0.002  0.001  0.003  0.005
   31  0.006  0.001  0.004  0.011
   32  0.001  0.000  0.002  0.004
   33  0.002  0.000  0.003  0.005
   34  0.001  0.000  0.002  0.004
   35  0.000  0.000  0.004  0.004
   36  0.000  0.002  0.007  0.009
   37  0.000  0.000  0.000  0.000
   38  0.000  0.000  0.000  0.000
tot    0.305  0.043  0.346  0.694
 
band     8 # energy   -5.98208397 # occ.  2.00000000
 
ion      s      p      d    tot
    1  0.000  0.000  0.008  0.009
    2  0.004  0.001  0.004  0.008
    3  0.006  0.001  0.003  0.011
    4  0.004  0.001  0.004  0.008
    5  0.000  0.001  0.007  0.008
    6  0.000  0.000  0.003  0.003
    7  0.006  0.001  0.003  0.011
    8  0.000  0.000  0.003  0.003
    9  0.000  0.000  0.001  0.001
   10  0.000  0.000  0.037  0.037
   11  0.039  0.001  0.015  0.055
   12  0.027  0.002  0.013  0.042
   13  0.039  0.002  0.015  0.055
   14  0.000  0.004  0.024  0.028
   15  0.001  0.001  0.011  0.013
   16  0.028  0.002  0.013  0.042
   17  0.001  0.001  0.010  0.012
   18  0.000  0.003  0.005  0.008
   19  0.007  0.001  0.011  0.019
   20  0.000  0.002  0.035  0.037
   21  0.046  0.002  0.016  0.064
   22  0.012  0.001  0.010  0.024
   23  0.047  0.002  0.016  0.064
   24  0.000  0.000  0.027  0.027
   25  0.000  0.004  0.003  0.007
   26  0.007  0.001  0.011  0.019
   27  0.012  0.001  0.010  0.024
   28  0.000  0.000  0.001  0.001
   29  0.000  0.000  0.002  0.002
   30  0.004  0.001  0.003  0.008
   31  0.000  0.000  0.002  0.002
   32  0.004  0.001  0.003  0.009
   33  0.004  0.001  0.003  0.008
   34  0.005  0.001  0.004  0.009
   35  0.000  0.000  0.004  0.004
   36  0.000  0.002  0.007  0.009
   37  0.000  0.000  0.000  0.000
   38  0.000  0.000  0.000  0.000
tot    0.305  0.043  0.346  0.694
 
band     9 # energy   -5.93641229 # occ.  2.00000000
 
ion      s      p      d    tot
    1  0.005  0.001  0.001  0.008
    2  0.000  0.001  0.006  0.007
    3  0.000  0.001  0.006  0.007
    4  0.000  0.001  0.006  0.007
    5  0.020  0.002  0.000  0.022
    6  0.000  0.001  0.006  0.007
    7  0.000  0.001  0.006  0.007
    8  0.000  0.001  0.006  0.007
    9  0.000  0.000  0.003  0.003
   10  0.024  0.003  0.002  0.028
   11  0.020  0.001  0.022  0.043
   12  0.023  0.003  0.002  0.028
   13  0.020  0.001  0.022  0.043
   14  0.020  0.001  0.022  0.043
   15  0.002  0.001  0.025  0.027
   16  0.023  0.003  0.002  0.028
   17  0.002  0.001  0.025  0.027
   18  0.002  0.001  0.025  0.027
   19  0.019  0.002  0.009  0.030
   20  0.009  0.003  0.014  0.026
   21  0.009  0.003  0.014  0.026
   22  0.008  0.000  0.026  0.034
   23  0.009  0.003  0.014  0.026
   24  0.008  0.000  0.026  0.034
   25  0.019  0.002  0.009  0.030
   26  0.019  0.002  0.009  0.030
   27  0.008  0.000  0.026  0.034
   28  0.015  0.001  0.000  0.017
   29  0.001  0.000  0.004  0.005
   30  0.001  0.000  0.004  0.005
   31  0.001  0.000  0.004  0.005
   32  0.001  0.000  0.004  0.005
   33  0.001  0.000  0.004  0.005
   34  0.001  0.000  0.004  0.005
   35  0.001  0.001  0.004  0.006
   36  0.000  0.000  0.000  0.000
   37  0.000  0.000  0.000  0.000
   38  0.000  0.001  0.000  0.001
tot    0.293  0.038  0.367  0.698
 
band    10 # energy   -5.92076983 # occ.  2.00000000
 
ion      s      p      d    tot
    1  0.000  0.001  0.003  0.004
    2  0.001  0.001  0.003  0.005
    3  0.000  0.000  0.003  0.004
    4  0.007  0.001  0.004  0.012
    5  0.000  0.000  0.005  0.005
    6  0.009  0.001  0.004  0.014
    7  0.003  0.001  0.004  0.008
    8  0.006  0.001  0.004  0.011
    9  0.000  0.001  0.011  0.012
   10  0.003  0.004  0.005  0.012
   11  0.008  0.001  0.008  0.017
   12  0.010  0.003  0.009  0.022
   13  0.003  0.001  0.018  0.023
   14  0.001  0.001  0.023  0.025
   15  0.061  0.002  0.007  0.070
   16  0.025  0.000  0.016  0.041
   17  0.026  0.001  0.028  0.055
   18  0.008  0.001  0.039  0.047
   19  0.038  0.002  0.004  0.044
   20  0.000  0.002  0.011  0.013
   21  0.000  0.002  0.012  0.013
   22  0.014  0.003  0.014  0.031
   23  0.000  0.001  0.013  0.014
   24  0.004  0.003  0.016  0.023
   25  0.005  0.000  0.032  0.037
   26  0.016  0.001  0.022  0.040
   27  0.034  0.001  0.012  0.046
   28  0.000  0.000  0.006  0.007
   29  0.004  0.001  0.003  0.008
   30  0.004  0.001  0.003  0.007
   31  0.003  0.001  0.002  0.006
   32  0.002  0.000  0.002  0.004
   33  0.001  0.000  0.002  0.003
   34  0.000  0.000  0.002  0.002
   35  0.000  0.001  0.004  0.005
   36  0.000  0.000  0.001  0.001
   37  0.000  0.000  0.000  0.000
   38  0.000  0.000  0.000  0.000
tot    0.297  0.042  0.353  0.692
 
band    11 # energy   -5.92076891 # occ.  2.00000000
 
ion      s      p      d    tot
    1  0.000  0.001  0.003  0.004
    2  0.007  0.001  0.004  0.013
    3  0.009  0.001  0.004  0.014
    4  0.002  0.001  0.004  0.006
    5  0.000  0.000  0.005  0.005
    6  0.000  0.000  0.004  0.004
    7  0.006  0.001  0.003  0.010
    8  0.003  0.001  0.003  0.007
    9  0.000  0.001  0.011  0.013
   10  0.022  0.001  0.015  0.038
   11  0.000  0.001  0.025  0.026
   12  0.015  0.002  0.011  0.029
   13  0.005  0.001  0.015  0.021
   14  0.008  0.001  0.010  0.019
   15  0.002  0.001  0.042  0.045
   16  0.001  0.005  0.004  0.009
   17  0.037  0.001  0.021  0.060
   18  0.056  0.002  0.010  0.067
   19  0.001  0.000  0.035  0.036
   20  0.000  0.001  0.013  0.014
   21  0.000  0.001  0.012  0.014
   22  0.021  0.002  0.014  0.036
   23  0.000  0.002  0.011  0.013
   24  0.031  0.001  0.012  0.044
   25  0.035  0.002  0.007  0.044
   26  0.023  0.001  0.016  0.041
   27  0.001  0.004  0.016  0.021
   28  0.000  0.000  0.006  0.007
   29  0.000  0.000  0.002  0.002
   30  0.001  0.000  0.001  0.003
   31  0.001  0.000  0.002  0.004
   32  0.003  0.001  0.003  0.006
   33  0.004  0.001  0.002  0.007
   34  0.004  0.001  0.002  0.008
   35  0.000  0.001  0.004  0.005
   36  0.000  0.000  0.001  0.001
   37  0.000  0.000  0.000  0.000
   38  0.000  0.000  0.000  0.000
tot    0.297  0.042  0.353  0.692
 
band    12 # energy   -5.90756135 # occ.  2.00000000
 
ion      s      p      d    tot
    1  0.000  0.000  0.000  0.000
    2  0.000  0.000  0.001  0.001
    3  0.000  0.000  0.001  0.001
    4  0.000  0.000  0.001  0.001
    5  0.002  0.000  0.000  0.002
    6  0.000  0.000  0.001  0.001
    7  0.000  0.000  0.001  0.001
    8  0.000  0.000  0.001  0.001
    9  0.001  0.000  0.000  0.001
   10  0.000  0.000  0.007  0.008
   11  0.005  0.000  0.003  0.009
   12  0.000  0.000  0.007  0.008
   13  0.005  0.000  0.003  0.009
   14  0.005  0.000  0.003  0.009
   15  0.001  0.000  0.008  0.009
   16  0.000  0.000  0.007  0.008
   17  0.001  0.000  0.008  0.009
   18  0.001  0.000  0.008  0.009
   19  0.011  0.001  0.018  0.030
   20  0.001  0.000  0.032  0.033
   21  0.001  0.000  0.032  0.033
   22  0.008  0.001  0.023  0.032
   23  0.001  0.000  0.032  0.033
   24  0.008  0.001  0.023  0.032
   25  0.011  0.001  0.018  0.030
   26  0.011  0.001  0.018  0.030
   27  0.008  0.001  0.023  0.032
   28  0.014  0.000  0.021  0.035
   29  0.022  0.000  0.018  0.040
   30  0.022  0.000  0.018  0.040
   31  0.022  0.000  0.018  0.040
   32  0.022  0.000  0.018  0.040
   33  0.022  0.000  0.018  0.040
   34  0.022  0.000  0.018  0.040
   35  0.022  0.000  0.017  0.039
   36  0.018  0.001  0.006  0.025
   37  0.000  0.005  0.000  0.005
   38  0.002  0.015  0.000  0.017
tot    0.271  0.031  0.433  0.734
 
band    13 # energy   -5.51436162 # occ.  2.00000000
 
ion      s      p      d    tot
    1  0.001  0.000  0.002  0.004
    2  0.000  0.001  0.007  0.008
    3  0.000  0.001  0.007  0.008
    4  0.000  0.001  0.007  0.008
    5  0.009  0.001  0.000  0.010
    6  0.000  0.001  0.007  0.008
    7  0.000  0.001  0.007  0.008
    8  0.000  0.001  0.007  0.008
    9  0.016  0.002  0.002  0.020
   10  0.006  0.000  0.036  0.043
   11  0.001  0.001  0.026  0.027
   12  0.006  0.000  0.036  0.043
   13  0.001  0.001  0.026  0.027
   14  0.001  0.001  0.026  0.027
   15  0.014  0.002  0.006  0.022
   16  0.006  0.000  0.036  0.043
   17  0.014  0.002  0.006  0.022
   18  0.014  0.002  0.006  0.022
   19  0.002  0.000  0.026  0.029
   20  0.006  0.002  0.029  0.036
   21  0.005  0.002  0.029  0.036
   22  0.003  0.001  0.012  0.016
   23  0.005  0.002  0.029  0.036
   24  0.003  0.001  0.012  0.016
   25  0.002  0.000  0.026  0.029
   26  0.002  0.000  0.026  0.029
   27  0.003  0.001  0.012  0.016
   28  0.000  0.000  0.001  0.001
   29  0.000  0.000  0.002  0.002
   30  0.000  0.000  0.002  0.002
   31  0.000  0.000  0.002  0.002
   32  0.000  0.000  0.002  0.002
   33  0.000  0.000  0.002  0.002
   34  0.000  0.000  0.002  0.002
   35  0.008  0.001  0.000  0.009
   36  0.021  0.000  0.030  0.050
   37  0.001  0.036  0.000  0.037
   38  0.006  0.056  0.000  0.061
tot    0.159  0.120  0.497  0.776
 
band    14 # energy   -5.49436972 # occ.  2.00000000
 
ion      s      p      d    tot
    1  0.000  0.001  0.004  0.004
    2  0.001  0.001  0.005  0.006
    3  0.009  0.001  0.004  0.015
    4  0.001  0.001  0.005  0.006
    5  0.000  0.001  0.010  0.012
    6  0.005  0.001  0.004  0.010
    7  0.009  0.001  0.004  0.015
    8  0.005  0.001  0.004  0.009
    9  0.000  0.000  0.009  0.009
   10  0.000  0.001  0.050  0.051
   11  0.015  0.001  0.021  0.037
   12  0.007  0.002  0.019  0.027
   13  0.015  0.001  0.021  0.037
   14  0.000  0.000  0.050  0.050
   15  0.002  0.000  0.020  0.022
   16  0.007  0.002  0.019  0.027
   17  0.002  0.000  0.020  0.022
   18  0.000  0.001  0.011  0.013
   19  0.005  0.000  0.019  0.024
   20  0.000  0.000  0.077  0.077
   21  0.017  0.001  0.024  0.042
   22  0.003  0.001  0.019  0.023
   23  0.017  0.001  0.024  0.042
   24  0.000  0.001  0.035  0.036
   25  0.000  0.001  0.010  0.011
   26  0.005  0.000  0.019  0.024
   27  0.003  0.001  0.019  0.023
   28  0.000  0.000  0.008  0.008
   29  0.003  0.001  0.004  0.008
   30  0.009  0.001  0.004  0.014
   31  0.003  0.001  0.004  0.008
   32  0.002  0.001  0.004  0.006
   33  0.009  0.001  0.004  0.014
   34  0.002  0.001  0.004  0.006
   35  0.000  0.000  0.003  0.003
   36  0.000  0.003  0.006  0.009
   37  0.000  0.000  0.000  0.000
   38  0.000  0.000  0.000  0.000
tot    0.153  0.030  0.568  0.751
 
band    15 # energy   -5.49435141 # occ.  2.00000000
 
ion      s      p      d    tot
    1  0.000  0.001  0.004  0.004
    2  0.009  0.001  0.004  0.014
    3  0.001  0.000  0.004  0.006
    4  0.009  0.001  0.004  0.014
    5  0.000  0.001  0.010  0.012
    6  0.005  0.001  0.005  0.010
    7  0.001  0.000  0.004  0.006
    8  0.005  0.001  0.005  0.010
    9  0.000  0.000  0.009  0.009
   10  0.008  0.002  0.009  0.020
   11  0.006  0.000  0.040  0.046
   12  0.003  0.001  0.039  0.043
   13  0.006  0.000  0.040  0.046
   14  0.019  0.001  0.012  0.032
   15  0.001  0.001  0.013  0.015
   16  0.003  0.001  0.039  0.043
   17  0.001  0.001  0.013  0.015
   18  0.002  0.000  0.025  0.027
   19  0.001  0.001  0.013  0.015
   20  0.023  0.001  0.007  0.031
   21  0.006  0.000  0.059  0.065
   22  0.001  0.001  0.031  0.033
   23  0.006  0.000  0.059  0.065
   24  0.004  0.001  0.012  0.017
   25  0.007  0.000  0.022  0.029
   26  0.001  0.001  0.013  0.015
   27  0.001  0.001  0.031  0.033
   28  0.000  0.000  0.008  0.008
   29  0.006  0.001  0.004  0.011
   30  0.000  0.000  0.004  0.005
   31  0.006  0.001  0.004  0.011
   32  0.007  0.001  0.005  0.012
   33  0.000  0.000  0.004  0.005
   34  0.007  0.001  0.005  0.012
   35  0.000  0.000  0.003  0.003
   36  0.000  0.003  0.006  0.009
   37  0.000  0.000  0.000  0.000
   38  0.000  0.000  0.000  0.000
tot    0.153  0.030  0.568  0.751
 
band    16 # energy   -5.49340094 # occ.  2.00000000
 
ion      s      p      d    tot
    1  0.017  0.002  0.001  0.019
    2  0.000  0.001  0.007  0.007
    3  0.000  0.001  0.007  0.007
    4  0.000  0.001  0.007  0.007
    5  0.003  0.001  0.002  0.005
    6  0.000  0.001  0.007  0.008
    7  0.000  0.001  0.007  0.007
    8  0.000  0.001  0.007  0.008
    9  0.005  0.000  0.000  0.005
   10  0.006  0.001  0.011  0.018
   11  0.007  0.001  0.021  0.029
   12  0.005  0.001  0.012  0.018
   13  0.007  0.001  0.021  0.029
   14  0.009  0.001  0.020  0.029
   15  0.000  0.000  0.038  0.038
   16  0.005  0.001  0.012  0.018
   17  0.000  0.000  0.038  0.038
   18  0.000  0.000  0.034  0.035
   19  0.013  0.002  0.007  0.021
   20  0.000  0.001  0.039  0.040
   21  0.000  0.001  0.040  0.041
   22  0.007  0.001  0.036  0.044
   23  0.000  0.001  0.040  0.041
   24  0.008  0.001  0.038  0.047
   25  0.011  0.002  0.007  0.020
   26  0.013  0.002  0.007  0.021
   27  0.007  0.001  0.036  0.044
   28  0.017  0.002  0.001  0.020
   29  0.000  0.001  0.007  0.008
   30  0.000  0.001  0.007  0.007
   31  0.000  0.001  0.007  0.008
   32  0.000  0.001  0.007  0.008
   33  0.000  0.001  0.007  0.007
   34  0.000  0.001  0.007  0.008
   35  0.002  0.001  0.002  0.005
   36  0.012  0.000  0.003  0.015
   37  0.000  0.009  0.000  0.009
   38  0.001  0.014  0.000  0.016
tot    0.156  0.052  0.548  0.756
 
band    17 # energy   -5.43933356 # occ.  2.00000000
 
ion      s      p      d    tot
    1  0.000  0.001  0.015  0.015
    2  0.010  0.001  0.004  0.015
    3  0.001  0.000  0.005  0.007
    4  0.010  0.001  0.004  0.015
    5  0.000  0.000  0.005  0.006
    6  0.004  0.001  0.005  0.010
    7  0.001  0.000  0.005  0.007
    8  0.004  0.001  0.005  0.010
    9  0.000  0.001  0.007  0.008
   10  0.000  0.001  0.031  0.031
   11  0.000  0.001  0.019  0.021
   12  0.007  0.000  0.022  0.030
   13  0.000  0.001  0.019  0.021
   14  0.000  0.001  0.018  0.019
   15  0.010  0.002  0.020  0.032
   16  0.007  0.000  0.022  0.030
   17  0.010  0.002  0.020  0.032
   18  0.000  0.000  0.062  0.062
   19  0.014  0.001  0.020  0.035
   20  0.000  0.002  0.019  0.021
   21  0.000  0.001  0.023  0.024
   22  0.017  0.001  0.021  0.039
   23  0.000  0.001  0.023  0.024
   24  0.000  0.001  0.032  0.032
   25  0.000  0.000  0.067  0.068
   26  0.014  0.001  0.020  0.035
   27  0.017  0.001  0.021  0.039
   28  0.000  0.001  0.005  0.006
   29  0.005  0.001  0.004  0.010
   30  0.000  0.000  0.005  0.005
   31  0.005  0.001  0.004  0.010
   32  0.004  0.001  0.003  0.008
   33  0.000  0.000  0.005  0.005
   34  0.004  0.001  0.003  0.008
   35  0.000  0.001  0.009  0.009
   36  0.000  0.000  0.002  0.002
   37  0.000  0.000  0.000  0.000
   38  0.000  0.000  0.000  0.000
tot    0.148  0.028  0.574  0.750
 
band    18 # energy   -5.43929708 # occ.  2.00000000
 
ion      s      p      d    tot
    1  0.000  0.001  0.015  0.015
    2  0.000  0.000  0.005  0.006
    3  0.008  0.001  0.005  0.015
    4  0.000  0.000  0.005  0.006
    5  0.000  0.000  0.005  0.006
    6  0.006  0.001  0.005  0.011
    7  0.008  0.001  0.005  0.015
    8  0.006  0.001  0.005  0.011
    9  0.000  0.001  0.007  0.008
   10  0.010  0.000  0.019  0.029
   11  0.000  0.001  0.018  0.020
   12  0.002  0.001  0.028  0.031
   13  0.000  0.001  0.018  0.020
   14  0.001  0.001  0.020  0.022
   15  0.003  0.001  0.048  0.052
   16  0.002  0.001  0.028  0.031
   17  0.003  0.001  0.048  0.052
   18  0.014  0.002  0.006  0.022
   19  0.005  0.001  0.051  0.057
   20  0.000  0.000  0.024  0.025
   21  0.000  0.001  0.021  0.022
   22  0.006  0.001  0.028  0.034
   23  0.000  0.001  0.021  0.022
   24  0.023  0.001  0.017  0.041
   25  0.019  0.001  0.004  0.024
   26  0.005  0.001  0.052  0.057
   27  0.006  0.001  0.028  0.034
   28  0.000  0.001  0.005  0.006
   29  0.001  0.000  0.004  0.005
   30  0.006  0.001  0.003  0.010
   31  0.001  0.000  0.004  0.005
   32  0.002  0.001  0.005  0.008
   33  0.006  0.001  0.003  0.010
   34  0.002  0.001  0.005  0.008
   35  0.000  0.001  0.009  0.009
   36  0.000  0.000  0.002  0.002
   37  0.000  0.000  0.000  0.000
   38  0.000  0.000  0.000  0.000
tot    0.148  0.028  0.574  0.750
 
band    19 # energy   -5.23537546 # occ.  2.00000000
 
ion      s      p      d    tot
    1  0.008  0.000  0.001  0.009
    2  0.000  0.000  0.006  0.006
    3  0.000  0.000  0.006  0.006
    4  0.000  0.000  0.006  0.006
    5  0.007  0.001  0.002  0.009
    6  0.000  0.000  0.006  0.006
    7  0.000  0.000  0.006  0.006
    8  0.000  0.000  0.006  0.006
    9  0.000  0.000  0.002  0.002
   10  0.000  0.000  0.010  0.010
   11  0.000  0.001  0.027  0.028
   12  0.000  0.000  0.010  0.010
   13  0.000  0.001  0.027  0.028
   14  0.000  0.001  0.027  0.028
   15  0.000  0.000  0.012  0.012
   16  0.000  0.000  0.010  0.010
   17  0.000  0.000  0.012  0.012
   18  0.000  0.000  0.012  0.012
   19  0.000  0.000  0.022  0.022
   20  0.004  0.000  0.027  0.032
   21  0.004  0.000  0.027  0.032
   22  0.001  0.000  0.014  0.015
   23  0.004  0.000  0.027  0.032
   24  0.001  0.000  0.013  0.015
   25  0.000  0.000  0.022  0.022
   26  0.000  0.000  0.022  0.022
   27  0.001  0.000  0.014  0.015
   28  0.009  0.000  0.005  0.013
   29  0.000  0.000  0.011  0.012
   30  0.000  0.000  0.011  0.012
   31  0.000  0.000  0.011  0.012
   32  0.000  0.000  0.011  0.012
   33  0.000  0.000  0.011  0.012
   34  0.000  0.000  0.011  0.012
   35  0.001  0.000  0.000  0.002
   36  0.019  0.009  0.064  0.093
   37  0.008  0.092  0.000  0.100
   38  0.010  0.122  0.000  0.131
tot    0.082  0.234  0.512  0.828
 
band    20 # energy   -5.16176404 # occ.  2.00000000
 
ion      s      p      d    tot
    1  0.000  0.000  0.004  0.004
    2  0.000  0.000  0.002  0.002
    3  0.002  0.000  0.002  0.004
    4  0.000  0.000  0.002  0.002
    5  0.000  0.000  0.006  0.006
    6  0.001  0.000  0.002  0.003
    7  0.002  0.000  0.002  0.004
    8  0.001  0.000  0.002  0.003
    9  0.000  0.000  0.001  0.002
   10  0.000  0.000  0.003  0.003
   11  0.000  0.000  0.002  0.002
   12  0.000  0.000  0.003  0.003
   13  0.000  0.000  0.002  0.002
   14  0.000  0.000  0.004  0.004
   15  0.000  0.000  0.001  0.001
   16  0.000  0.000  0.003  0.003
   17  0.000  0.000  0.001  0.001
   18  0.001  0.000  0.002  0.004
   19  0.000  0.000  0.008  0.008
   20  0.000  0.000  0.010  0.010
   21  0.000  0.000  0.006  0.006
   22  0.000  0.000  0.004  0.004
   23  0.000  0.000  0.006  0.006
   24  0.000  0.000  0.003  0.003
   25  0.000  0.000  0.002  0.002
   26  0.000  0.000  0.008  0.008
   27  0.000  0.000  0.004  0.004
   28  0.000  0.000  0.012  0.012
   29  0.013  0.001  0.009  0.023
   30  0.000  0.000  0.009  0.010
   31  0.013  0.001  0.009  0.023
   32  0.009  0.001  0.006  0.016
   33  0.000  0.000  0.009  0.009
   34  0.009  0.001  0.006  0.016
   35  0.000  0.000  0.018  0.018
   36  0.000  0.005  0.021  0.026
   37  0.000  0.128  0.000  0.128
   38  0.000  0.303  0.000  0.303
tot    0.055  0.444  0.191  0.690
 
band    21 # energy   -5.16169050 # occ.  2.00000000
 
ion      s      p      d    tot
    1  0.000  0.000  0.004  0.004
    2  0.002  0.000  0.002  0.004
    3  0.000  0.000  0.002  0.002
    4  0.002  0.000  0.002  0.004
    5  0.000  0.000  0.006  0.006
    6  0.001  0.000  0.002  0.003
    7  0.000  0.000  0.002  0.002
    8  0.001  0.000  0.002  0.003
    9  0.000  0.000  0.001  0.002
   10  0.000  0.000  0.003  0.003
   11  0.000  0.000  0.004  0.004
   12  0.000  0.000  0.003  0.003
   13  0.000  0.000  0.004  0.004
   14  0.000  0.000  0.001  0.001
   15  0.001  0.000  0.002  0.003
   16  0.000  0.000  0.003  0.003