PROCAR new format
# of k-points:   10         # of bands:  252         # of ions:   37

 k-point     1 :    0.00000000 0.00000000 0.00000000     weight = 0.01562500

band     1 # energy   -8.81252952 # occ.  2.00000000
 
ion      s      p      d    tot
    1  0.004  0.000  0.000  0.004
    2  0.004  0.000  0.000  0.004
    3  0.004  0.000  0.000  0.004
    4  0.004  0.000  0.000  0.004
    5  0.004  0.000  0.000  0.004
    6  0.004  0.000  0.000  0.004
    7  0.004  0.000  0.000  0.004
    8  0.004  0.000  0.000  0.004
    9  0.004  0.000  0.000  0.004
   10  0.017  0.000  0.000  0.017
   11  0.018  0.000  0.000  0.018
   12  0.017  0.000  0.000  0.017
   13  0.018  0.000  0.000  0.018
   14  0.018  0.000  0.000  0.018
   15  0.017  0.000  0.000  0.017
   16  0.017  0.000  0.000  0.017
   17  0.017  0.000  0.000  0.017
   18  0.017  0.000  0.000  0.017
   19  0.018  0.000  0.000  0.019
   20  0.026  0.000  0.000  0.026
   21  0.026  0.000  0.000  0.026
   22  0.019  0.000  0.000  0.019
   23  0.026  0.000  0.000  0.026
   24  0.019  0.000  0.000  0.019
   25  0.018  0.000  0.000  0.019
   26  0.018  0.000  0.000  0.019
   27  0.019  0.000  0.000  0.019
   28  0.005  0.000  0.000  0.005
   29  0.008  0.000  0.000  0.009
   30  0.008  0.000  0.000  0.009
   31  0.008  0.000  0.000  0.009
   32  0.008  0.000  0.000  0.009
   33  0.008  0.000  0.000  0.009
   34  0.008  0.000  0.000  0.009
   35  0.005  0.000  0.000  0.005
   36  0.048  0.009  0.025  0.082
   37  0.092  0.004  0.000  0.096
tot    0.577  0.021  0.030  0.628
 
band     2 # energy   -8.39312689 # occ.  2.00000000
 
ion      s      p      d    tot
    1  0.004  0.000  0.000  0.004
    2  0.004  0.000  0.000  0.004
    3  0.004  0.000  0.000  0.004
    4  0.004  0.000  0.000  0.004
    5  0.004  0.000  0.000  0.004
    6  0.004  0.000  0.000  0.004
    7  0.004  0.000  0.000  0.004
    8  0.004  0.000  0.000  0.004
    9  0.004  0.000  0.000  0.005
   10  0.011  0.000  0.000  0.012
   11  0.012  0.000  0.000  0.012
   12  0.011  0.000  0.000  0.012
   13  0.012  0.000  0.000  0.012
   14  0.012  0.000  0.000  0.012
   15  0.013  0.000  0.000  0.013
   16  0.011  0.000  0.000  0.012
   17  0.013  0.000  0.000  0.013
   18  0.013  0.000  0.000  0.013
   19  0.004  0.000  0.000  0.004
   20  0.001  0.001  0.001  0.004
   21  0.001  0.001  0.001  0.004
   22  0.005  0.000  0.000  0.005
   23  0.001  0.001  0.001  0.004
   24  0.005  0.000  0.000  0.005
   25  0.004  0.000  0.000  0.004
   26  0.004  0.000  0.000  0.004
   27  0.005  0.000  0.000  0.005
   28  0.000  0.000  0.000  0.000
   29  0.001  0.001  0.002  0.004
   30  0.001  0.001  0.002  0.004
   31  0.001  0.001  0.002  0.004
   32  0.001  0.001  0.002  0.004
   33  0.001  0.001  0.002  0.004
   34  0.001  0.001  0.002  0.004
   35  0.000  0.000  0.000  0.000
   36  0.076  0.051  0.079  0.206
   37  0.296  0.009  0.000  0.305
tot    0.551  0.072  0.100  0.724
 
band     3 # energy   -7.43752002 # occ.  2.00000000
 
ion      s      p      d    tot
    1  0.017  0.000  0.001  0.019
    2  0.016  0.000  0.001  0.018
    3  0.016  0.000  0.001  0.018
    4  0.016  0.000  0.001  0.018
    5  0.016  0.000  0.001  0.018
    6  0.016  0.000  0.001  0.018
    7  0.016  0.000  0.001  0.018
    8  0.016  0.000  0.001  0.018
    9  0.016  0.000  0.001  0.017
   10  0.009  0.002  0.002  0.013
   11  0.008  0.002  0.003  0.012
   12  0.009  0.002  0.002  0.013
   13  0.008  0.002  0.003  0.012
   14  0.008  0.002  0.003  0.012
   15  0.007  0.002  0.003  0.011
   16  0.009  0.002  0.002  0.013
   17  0.007  0.002  0.003  0.011
   18  0.007  0.002  0.003  0.011
   19  0.017  0.001  0.005  0.023
   20  0.015  0.001  0.006  0.022
   21  0.015  0.001  0.006  0.022
   22  0.020  0.001  0.005  0.025
   23  0.015  0.001  0.006  0.022
   24  0.020  0.001  0.005  0.025
   25  0.017  0.001  0.005  0.023
   26  0.017  0.001  0.005  0.023
   27  0.020  0.001  0.005  0.025
   28  0.012  0.001  0.000  0.012
   29  0.009  0.001  0.001  0.010
   30  0.009  0.001  0.001  0.010
   31  0.009  0.001  0.001  0.010
   32  0.009  0.001  0.001  0.010
   33  0.009  0.001  0.001  0.010
   34  0.009  0.001  0.001  0.010
   35  0.012  0.001  0.000  0.013
   36  0.000  0.010  0.011  0.022
   37  0.033  0.001  0.000  0.034
tot    0.478  0.042  0.100  0.619
 
band     4 # energy   -6.59038650 # occ.  2.00000000
 
ion      s      p      d    tot
    1  0.001  0.000  0.012  0.014
    2  0.007  0.000  0.010  0.017
    3  0.007  0.000  0.010  0.017
    4  0.007  0.000  0.010  0.017
    5  0.001  0.000  0.006  0.008
    6  0.007  0.000  0.010  0.017
    7  0.007  0.000  0.010  0.017
    8  0.007  0.000  0.010  0.017
    9  0.031  0.001  0.002  0.035
   10  0.009  0.001  0.021  0.031
   11  0.018  0.003  0.009  0.030
   12  0.009  0.001  0.021  0.031
   13  0.018  0.003  0.009  0.030
   14  0.018  0.003  0.009  0.030
   15  0.009  0.001  0.018  0.028
   16  0.009  0.001  0.021  0.031
   17  0.009  0.001  0.018  0.028
   18  0.009  0.001  0.018  0.028
   19  0.000  0.001  0.016  0.017
   20  0.021  0.002  0.012  0.035
   21  0.021  0.002  0.012  0.035
   22  0.010  0.002  0.004  0.016
   23  0.021  0.002  0.012  0.035
   24  0.010  0.002  0.004  0.016
   25  0.000  0.001  0.016  0.017
   26  0.000  0.001  0.016  0.017
   27  0.010  0.002  0.004  0.016
   28  0.006  0.000  0.000  0.006
   29  0.002  0.000  0.005  0.008
   30  0.002  0.000  0.005  0.008
   31  0.002  0.000  0.005  0.008
   32  0.002  0.000  0.005  0.008
   33  0.002  0.000  0.005  0.008
   34  0.002  0.000  0.005  0.008
   35  0.010  0.000  0.001  0.011
   36  0.002  0.003  0.001  0.005
   37  0.000  0.000  0.000  0.000
tot    0.312  0.035  0.349  0.697
 
band     5 # energy   -6.57927326 # occ.  2.00000000
 
ion      s      p      d    tot
    1  0.000  0.000  0.006  0.007
    2  0.004  0.001  0.004  0.009
    3  0.005  0.001  0.003  0.008
    4  0.006  0.001  0.004  0.010
    5  0.000  0.001  0.008  0.009
    6  0.000  0.000  0.003  0.003
    7  0.006  0.001  0.003  0.010
    8  0.000  0.000  0.003  0.003
    9  0.000  0.000  0.001  0.001
   10  0.000  0.000  0.030  0.031
   11  0.037  0.002  0.017  0.055
   12  0.020  0.002  0.009  0.031
   13  0.047  0.001  0.013  0.062
   14  0.001  0.003  0.031  0.034
   15  0.004  0.001  0.010  0.015
   16  0.015  0.001  0.014  0.031
   17  0.005  0.001  0.012  0.018
   18  0.000  0.004  0.002  0.006
   19  0.003  0.001  0.009  0.013
   20  0.001  0.003  0.030  0.034
   21  0.050  0.001  0.014  0.065
   22  0.023  0.002  0.008  0.033
   23  0.038  0.002  0.018  0.058
   24  0.000  0.000  0.034  0.034
   25  0.000  0.004  0.003  0.006
   26  0.003  0.001  0.011  0.015
   27  0.017  0.001  0.014  0.033
   28  0.000  0.000  0.001  0.001
   29  0.000  0.000  0.003  0.003
   30  0.007  0.001  0.003  0.011
   31  0.001  0.000  0.002  0.003
   32  0.005  0.001  0.004  0.010
   33  0.006  0.001  0.003  0.010
   34  0.004  0.001  0.004  0.008
   35  0.000  0.000  0.005  0.006
   36  0.000  0.003  0.003  0.005
   37  0.000  0.000  0.000  0.000
tot    0.308  0.044  0.342  0.694
 
band     6 # energy   -6.57927175 # occ.  2.00000000
 
ion      s      p      d    tot
    1  0.000  0.000  0.006  0.007
    2  0.003  0.001  0.002  0.006
    3  0.002  0.001  0.003  0.006
    4  0.001  0.000  0.002  0.004
    5  0.000  0.001  0.008  0.009
    6  0.007  0.001  0.003  0.011
    7  0.001  0.000  0.003  0.005
    8  0.007  0.001  0.003  0.011
    9  0.000  0.000  0.001  0.001
   10  0.024  0.002  0.006  0.031
   11  0.020  0.002  0.023  0.045
   12  0.004  0.000  0.027  0.031
   13  0.009  0.002  0.028  0.039
   14  0.056  0.001  0.009  0.066
   15  0.002  0.003  0.006  0.011
   16  0.008  0.001  0.022  0.031
   17  0.001  0.003  0.004  0.008
   18  0.006  0.000  0.014  0.020
   19  0.001  0.002  0.006  0.010
   20  0.058  0.001  0.012  0.071
   21  0.009  0.003  0.027  0.040
   22  0.004  0.000  0.029  0.034
   23  0.021  0.002  0.024  0.047
   24  0.026  0.002  0.004  0.032
   25  0.004  0.000  0.013  0.017
   26  0.001  0.003  0.004  0.008
   27  0.009  0.001  0.023  0.033
   28  0.000  0.000  0.001  0.001
   29  0.008  0.001  0.004  0.013
   30  0.000  0.000  0.003  0.004
   31  0.007  0.001  0.004  0.012
   32  0.002  0.001  0.002  0.005
   33  0.002  0.001  0.004  0.006
   34  0.004  0.001  0.002  0.007
   35  0.000  0.000  0.005  0.006
   36  0.000  0.003  0.003  0.005
   37  0.000  0.000  0.000  0.000
tot    0.308  0.044  0.342  0.694
 
band     7 # energy   -6.56252627 # occ.  2.00000000
 
ion      s      p      d    tot
    1  0.020  0.000  0.010  0.030
    2  0.013  0.000  0.015  0.029
    3  0.013  0.000  0.015  0.029
    4  0.013  0.000  0.015  0.029
    5  0.021  0.000  0.014  0.035
    6  0.013  0.000  0.015  0.029
    7  0.013  0.000  0.015  0.029
    8  0.013  0.000  0.015  0.029
    9  0.003  0.001  0.018  0.022
   10  0.003  0.000  0.030  0.033
   11  0.000  0.001  0.026  0.027
   12  0.003  0.000  0.030  0.033
   13  0.000  0.001  0.026  0.027
   14  0.000  0.001  0.026  0.027
   15  0.027  0.001  0.017  0.044
   16  0.003  0.000  0.030  0.033
   17  0.027  0.001  0.017  0.044
   18  0.027  0.001  0.017  0.044
   19  0.000  0.000  0.014  0.014
   20  0.013  0.000  0.008  0.022
   21  0.013  0.000  0.008  0.022
   22  0.001  0.001  0.009  0.012
   23  0.013  0.000  0.008  0.022
   24  0.001  0.001  0.009  0.012
   25  0.000  0.000  0.014  0.014
   26  0.000  0.000  0.014  0.014
   27  0.001  0.001  0.009  0.012
   28  0.000  0.000  0.000  0.000
   29  0.000  0.000  0.002  0.002
   30  0.000  0.000  0.002  0.002
   31  0.000  0.000  0.002  0.002
   32  0.000  0.000  0.002  0.002
   33  0.000  0.000  0.002  0.002
   34  0.000  0.000  0.002  0.002
   35  0.001  0.000  0.000  0.002
   36  0.001  0.002  0.000  0.003
   37  0.001  0.000  0.000  0.001
tot    0.259  0.016  0.457  0.733
 
band     8 # energy   -6.54520370 # occ.  2.00000000
 
ion      s      p      d    tot
    1  0.011  0.001  0.001  0.013
    2  0.000  0.001  0.006  0.006
    3  0.000  0.001  0.006  0.006
    4  0.000  0.001  0.006  0.006
    5  0.012  0.002  0.002  0.015
    6  0.000  0.001  0.006  0.006
    7  0.000  0.001  0.006  0.006
    8  0.000  0.001  0.006  0.006
    9  0.000  0.000  0.000  0.000
   10  0.025  0.003  0.003  0.031
   11  0.020  0.000  0.022  0.043
   12  0.025  0.003  0.003  0.031
   13  0.020  0.000  0.022  0.043
   14  0.020  0.000  0.022  0.043
   15  0.000  0.001  0.020  0.022
   16  0.025  0.003  0.003  0.031
   17  0.000  0.001  0.020  0.022
   18  0.000  0.001  0.020  0.022
   19  0.029  0.003  0.003  0.034
   20  0.002  0.002  0.022  0.026
   21  0.002  0.002  0.022  0.026
   22  0.011  0.000  0.027  0.038
   23  0.002  0.002  0.022  0.026
   24  0.011  0.000  0.027  0.038
   25  0.029  0.003  0.003  0.034
   26  0.029  0.003  0.003  0.034
   27  0.011  0.000  0.027  0.038
   28  0.009  0.001  0.001  0.012
   29  0.000  0.000  0.004  0.004
   30  0.000  0.000  0.004  0.004
   31  0.000  0.000  0.004  0.004
   32  0.000  0.000  0.004  0.005
   33  0.000  0.000  0.004  0.004
   34  0.000  0.000  0.004  0.005
   35  0.007  0.001  0.002  0.009
   36  0.000  0.000  0.000  0.001
   37  0.000  0.000  0.000  0.000
tot    0.299  0.040  0.356  0.695
 
band     9 # energy   -6.51689359 # occ.  2.00000000
 
ion      s      p      d    tot
    1  0.000  0.001  0.005  0.006
    2  0.006  0.001  0.004  0.011
    3  0.006  0.001  0.003  0.011
    4  0.006  0.001  0.004  0.011
    5  0.000  0.000  0.003  0.003
    6  0.000  0.000  0.003  0.004
    7  0.007  0.001  0.004  0.012
    8  0.000  0.000  0.003  0.004
    9  0.000  0.001  0.011  0.012
   10  0.037  0.000  0.015  0.053
   11  0.001  0.002  0.015  0.017
   12  0.008  0.003  0.010  0.022
   13  0.000  0.002  0.015  0.017
   14  0.002  0.001  0.011  0.013
   15  0.016  0.001  0.034  0.051
   16  0.011  0.003  0.011  0.025
   17  0.013  0.001  0.037  0.050
   18  0.057  0.002  0.004  0.063
   19  0.013  0.001  0.027  0.041
   20  0.004  0.001  0.010  0.015
   21  0.001  0.001  0.016  0.018
   22  0.006  0.003  0.011  0.020
   23  0.001  0.001  0.016  0.018
   24  0.027  0.000  0.014  0.041
   25  0.047  0.002  0.004  0.052
   26  0.010  0.001  0.029  0.040
   27  0.008  0.003  0.011  0.022
   28  0.000  0.001  0.006  0.007
   29  0.000  0.000  0.002  0.002
   30  0.003  0.001  0.002  0.006
   31  0.000  0.000  0.002  0.002
   32  0.003  0.001  0.003  0.007
   33  0.003  0.001  0.002  0.005
   34  0.003  0.001  0.003  0.007
   35  0.000  0.001  0.003  0.003
   36  0.000  0.000  0.001  0.001
   37  0.000  0.000  0.000  0.000
tot    0.299  0.041  0.353  0.694
 
band    10 # energy   -6.51688482 # occ.  2.00000000
 
ion      s      p      d    tot
    1  0.000  0.001  0.005  0.006
    2  0.003  0.001  0.003  0.007
    3  0.002  0.001  0.004  0.006
    4  0.002  0.001  0.003  0.006
    5  0.000  0.000  0.003  0.003
    6  0.008  0.001  0.004  0.014
    7  0.002  0.001  0.004  0.006
    8  0.008  0.001  0.004  0.014
    9  0.000  0.001  0.011  0.012
   10  0.000  0.004  0.009  0.013
   11  0.001  0.001  0.012  0.015
   12  0.029  0.001  0.014  0.044
   13  0.001  0.001  0.012  0.015
   14  0.000  0.002  0.016  0.019
   15  0.041  0.001  0.016  0.058
   16  0.027  0.001  0.014  0.042
   17  0.045  0.002  0.013  0.059
   18  0.000  0.000  0.046  0.047
   19  0.034  0.002  0.013  0.048
   20  0.000  0.001  0.018  0.019
   21  0.003  0.001  0.012  0.016
   22  0.021  0.001  0.013  0.035
   23  0.003  0.001  0.012  0.016
   24  0.000  0.004  0.011  0.015
   25  0.000  0.001  0.036  0.037
   26  0.036  0.002  0.011  0.049
   27  0.019  0.001  0.013  0.034
   28  0.000  0.001  0.006  0.007
   29  0.004  0.001  0.002  0.008
   30  0.001  0.000  0.003  0.004
   31  0.004  0.001  0.002  0.008
   32  0.001  0.000  0.002  0.003
   33  0.001  0.000  0.003  0.004
   34  0.001  0.000  0.001  0.003
   35  0.000  0.001  0.003  0.003
   36  0.000  0.000  0.001  0.001
   37  0.000  0.000  0.000  0.000
tot    0.299  0.041  0.353  0.694
 
band    11 # energy   -6.37737782 # occ.  2.00000000
 
ion      s      p      d    tot
    1  0.002  0.000  0.000  0.002
    2  0.001  0.000  0.001  0.002
    3  0.001  0.000  0.001  0.002
    4  0.001  0.000  0.001  0.002
    5  0.003  0.000  0.000  0.004
    6  0.001  0.000  0.001  0.002
    7  0.001  0.000  0.001  0.002
    8  0.001  0.000  0.001  0.002
    9  0.000  0.000  0.001  0.002
   10  0.000  0.000  0.005  0.006
   11  0.001  0.001  0.001  0.003
   12  0.000  0.000  0.005  0.006
   13  0.001  0.001  0.001  0.003
   14  0.001  0.001  0.001  0.003
   15  0.005  0.001  0.003  0.009
   16  0.000  0.000  0.005  0.006
   17  0.005  0.001  0.003  0.009
   18  0.005  0.001  0.003  0.009
   19  0.002  0.001  0.014  0.017
   20  0.001  0.000  0.028  0.030
   21  0.001  0.000  0.028  0.030
   22  0.009  0.002  0.020  0.031
   23  0.001  0.000  0.028  0.030
   24  0.009  0.002  0.020  0.031
   25  0.002  0.001  0.014  0.017
   26  0.002  0.001  0.014  0.017
   27  0.009  0.002  0.020  0.031
   28  0.032  0.000  0.020  0.052
   29  0.024  0.000  0.022  0.046
   30  0.024  0.000  0.022  0.046
   31  0.024  0.000  0.022  0.046
   32  0.024  0.000  0.022  0.046
   33  0.024  0.000  0.022  0.046
   34  0.024  0.000  0.022  0.046
   35  0.028  0.000  0.022  0.050
   36  0.001  0.001  0.020  0.022
   37  0.013  0.000  0.000  0.013
tot    0.282  0.017  0.423  0.722
 
band    12 # energy   -6.09662787 # occ.  2.00000000
 
ion      s      p      d    tot
    1  0.015  0.002  0.002  0.019
    2  0.000  0.001  0.008  0.009
    3  0.000  0.001  0.008  0.009
    4  0.000  0.001  0.008  0.009
    5  0.000  0.000  0.002  0.002
    6  0.000  0.001  0.008  0.009
    7  0.000  0.001  0.008  0.009
    8  0.000  0.001  0.008  0.009
    9  0.017  0.001  0.000  0.018
   10  0.011  0.001  0.014  0.027
   11  0.002  0.000  0.045  0.047
   12  0.011  0.001  0.014  0.027
   13  0.002  0.000  0.045  0.047
   14  0.002  0.000  0.045  0.047
   15  0.004  0.001  0.022  0.027
   16  0.011  0.001  0.014  0.027
   17  0.004  0.001  0.022  0.027
   18  0.004  0.001  0.022  0.027
   19  0.004  0.001  0.012  0.017
   20  0.001  0.000  0.052  0.054
   21  0.001  0.000  0.052  0.054
   22  0.010  0.001  0.019  0.030
   23  0.001  0.000  0.052  0.054
   24  0.010  0.001  0.019  0.030
   25  0.004  0.001  0.012  0.017
   26  0.004  0.001  0.012  0.017
   27  0.010  0.001  0.019  0.030
   28  0.009  0.001  0.001  0.011
   29  0.000  0.000  0.005  0.006
   30  0.000  0.000  0.005  0.006
   31  0.000  0.000  0.005  0.006
   32  0.000  0.000  0.005  0.006
   33  0.000  0.000  0.005  0.006
   34  0.000  0.000  0.005  0.006
   35  0.008  0.001  0.002  0.011
   36  0.000  0.000  0.001  0.002
   37  0.000  0.000  0.000  0.000
tot    0.147  0.027  0.583  0.757
 
band    13 # energy   -6.09170558 # occ.  2.00000000
 
ion      s      p      d    tot
    1  0.000  0.001  0.004  0.005
    2  0.001  0.001  0.005  0.006
    3  0.009  0.001  0.004  0.015
    4  0.001  0.001  0.005  0.006
    5  0.000  0.001  0.010  0.012
    6  0.004  0.001  0.004  0.009
    7  0.009  0.001  0.004  0.015
    8  0.004  0.001  0.004  0.009
    9  0.000  0.000  0.008  0.008
   10  0.000  0.001  0.050  0.051
   11  0.018  0.001  0.020  0.039
   12  0.007  0.002  0.019  0.027
   13  0.018  0.001  0.020  0.039
   14  0.000  0.000  0.050  0.051
   15  0.002  0.000  0.019  0.022
   16  0.007  0.002  0.019  0.027
   17  0.002  0.000  0.019  0.022
   18  0.000  0.002  0.010  0.012
   19  0.005  0.000  0.018  0.023
   20  0.000  0.000  0.074  0.074
   21  0.016  0.001  0.023  0.040
   22  0.003  0.001  0.019  0.023
   23  0.016  0.001  0.023  0.040
   24  0.000  0.001  0.032  0.033
   25  0.000  0.001  0.013  0.014
   26  0.005  0.000  0.018  0.023
   27  0.003  0.001  0.019  0.023
   28  0.000  0.000  0.008  0.009
   29  0.003  0.001  0.005  0.008
   30  0.011  0.001  0.004  0.016
   31  0.003  0.001  0.005  0.008
   32  0.003  0.001  0.004  0.007
   33  0.011  0.001  0.004  0.016
   34  0.003  0.001  0.004  0.007
   35  0.000  0.000  0.003  0.004
   36  0.000  0.003  0.002  0.006
   37  0.000  0.000  0.000  0.000
tot    0.162  0.033  0.552  0.747
 
band    14 # energy   -6.09169477 # occ.  2.00000000
 
ion      s      p      d    tot
    1  0.000  0.001  0.004  0.005
    2  0.009  0.001  0.004  0.014
    3  0.000  0.000  0.004  0.005
    4  0.009  0.001  0.004  0.014
    5  0.000  0.001  0.010  0.012
    6  0.005  0.001  0.005  0.011
    7  0.000  0.000  0.004  0.005
    8  0.005  0.001  0.005  0.011
    9  0.000  0.000  0.008  0.008
   10  0.010  0.002  0.008  0.019
   11  0.006  0.000  0.040  0.047
   12  0.002  0.001  0.039  0.043
   13  0.006  0.000  0.040  0.047
   14  0.023  0.001  0.010  0.035
   15  0.001  0.001  0.013  0.015
   16  0.002  0.001  0.039  0.043
   17  0.001  0.001  0.013  0.015
   18  0.003  0.000  0.022  0.025
   19  0.002  0.001  0.014  0.017
   20  0.021  0.002  0.006  0.029
   21  0.005  0.000  0.057  0.062
   22  0.001  0.001  0.027  0.029
   23  0.005  0.000  0.057  0.062
   24  0.003  0.001  0.015  0.019
   25  0.007  0.000  0.019  0.027
   26  0.002  0.001  0.014  0.017
   27  0.001  0.001  0.027  0.029
   28  0.000  0.000  0.008  0.009
   29  0.008  0.001  0.004  0.013
   30  0.000  0.000  0.004  0.005
   31  0.008  0.001  0.004  0.013
   32  0.008  0.001  0.004  0.013
   33  0.000  0.000  0.004  0.005
   34  0.008  0.001  0.004  0.013
   35  0.000  0.000  0.003  0.004
   36  0.000  0.003  0.002  0.006
   37  0.000  0.000  0.000  0.000
tot    0.162  0.033  0.552  0.747
 
band    15 # energy   -6.02801088 # occ.  2.00000000
 
ion      s      p      d    tot
    1  0.009  0.000  0.001  0.011
    2  0.000  0.001  0.009  0.009
    3  0.000  0.001  0.009  0.009
    4  0.000  0.001  0.009  0.009
    5  0.018  0.002  0.001  0.021
    6  0.000  0.001  0.009  0.009
    7  0.000  0.001  0.009  0.009
    8  0.000  0.001  0.009  0.009
    9  0.002  0.000  0.002  0.005
   10  0.000  0.000  0.040  0.040
   11  0.006  0.001  0.012  0.020
   12  0.000  0.000  0.041  0.041
   13  0.006  0.001  0.012  0.020
   14  0.007  0.001  0.012  0.020
   15  0.006  0.001  0.027  0.033
   16  0.000  0.000  0.041  0.041
   17  0.006  0.001  0.027  0.033
   18  0.006  0.001  0.027  0.034
   19  0.009  0.000  0.043  0.053
   20  0.009  0.001  0.006  0.017
   21  0.009  0.001  0.006  0.017
   22  0.001  0.000  0.037  0.038
   23  0.009  0.001  0.006  0.017
   24  0.001  0.000  0.036  0.037
   25  0.010  0.000  0.043  0.053
   26  0.009  0.000  0.043  0.053
   27  0.001  0.000  0.037  0.038
   28  0.000  0.001  0.008  0.009
   29  0.001  0.000  0.006  0.007
   30  0.001  0.000  0.006  0.007
   31  0.001  0.000  0.006  0.007
   32  0.001  0.000  0.006  0.007
   33  0.001  0.000  0.006  0.007
   34  0.001  0.000  0.006  0.007
   35  0.001  0.000  0.001  0.002
   36  0.005  0.006  0.000  0.012
   37  0.004  0.000  0.000  0.004
tot    0.140  0.029  0.596  0.766
 
band    16 # energy   -6.02736820 # occ.  2.00000000
 
ion      s      p      d    tot
    1  0.000  0.001  0.014  0.015
    2  0.000  0.001  0.005  0.006
    3  0.008  0.001  0.005  0.014
    4  0.000  0.000  0.005  0.006
    5  0.000  0.000  0.005  0.006
    6  0.006  0.001  0.005  0.012
    7  0.009  0.001  0.005  0.015
    8  0.007  0.001  0.005  0.012
    9  0.000  0.001  0.007  0.008
   10  0.010  0.000  0.020  0.031
   11  0.000  0.001  0.019  0.020
   12  0.003  0.001  0.027  0.030
   13  0.000  0.001  0.019  0.020
   14  0.001  0.001  0.021  0.023
   15  0.003  0.001  0.051  0.055
   16  0.002  0.001  0.027  0.030
   17  0.004  0.001  0.048  0.053
   18  0.014  0.002  0.006  0.023
   19  0.004  0.001  0.052  0.057
   20  0.000  0.000  0.024  0.024
   21  0.000  0.001  0.022  0.023
   22  0.006  0.001  0.028  0.035
   23  0.000  0.001  0.022  0.023
   24  0.023  0.001  0.017  0.041
   25  0.017  0.001  0.004  0.023
   26  0.005  0.001  0.050  0.055
   27  0.005  0.001  0.028  0.034
   28  0.000  0.001  0.005  0.005
   29  0.001  0.000  0.003  0.005
   30  0.006  0.001  0.002  0.009
   31  0.001  0.000  0.003  0.004
   32  0.002  0.001  0.005  0.008
   33  0.006  0.001  0.002  0.009
   34  0.002  0.001  0.005  0.008
   35  0.000  0.001  0.008  0.008
   36  0.000  0.000  0.001  0.001
   37  0.000  0.000  0.000  0.000
tot    0.148  0.028  0.576  0.752
 
band    17 # energy   -6.02736644 # occ.  2.00000000
 
ion      s      p      d    tot
    1  0.000  0.001  0.014  0.015
    2  0.010  0.001  0.005  0.015
    3  0.002  0.000  0.005  0.007
    4  0.010  0.001  0.005  0.016
    5  0.000  0.000  0.005  0.006
    6  0.004  0.001  0.005  0.010
    7  0.001  0.000  0.005  0.007
    8  0.003  0.001  0.005  0.010
    9  0.000  0.001  0.007  0.008
   10  0.000  0.001  0.030  0.030
   11  0.001  0.001  0.020  0.022
   12  0.007  0.000  0.022  0.030
   13  0.001  0.001  0.020  0.022
   14  0.000  0.001  0.019  0.020
   15  0.011  0.002  0.019  0.032
   16  0.008  0.000  0.022  0.030
   17  0.011  0.002  0.022  0.034
   18  0.000  0.000  0.064  0.064
   19  0.014  0.001  0.019  0.033
   20  0.000  0.002  0.021  0.023
   21  0.000  0.001  0.023  0.024
   22  0.017  0.001  0.021  0.038
   23  0.000  0.001  0.023  0.024
   24  0.000  0.001  0.032  0.033
   25  0.000  0.000  0.066  0.067
   26  0.013  0.001  0.021  0.035
   27  0.018  0.001  0.020  0.039
   28  0.000  0.001  0.005  0.005
   29  0.005  0.001  0.004  0.010
   30  0.000  0.000  0.005  0.005
   31  0.005  0.001  0.004  0.010
   32  0.004  0.001  0.002  0.007
   33  0.000  0.000  0.004  0.005
   34  0.004  0.001  0.002  0.006
   35  0.000  0.001  0.008  0.008
   36  0.000  0.000  0.001  0.001
   37  0.000  0.000  0.000  0.000
tot    0.148  0.029  0.576  0.752
 
band    18 # energy   -5.71299681 # occ.  2.00000000
 
ion      s      p      d    tot
    1  0.000  0.000  0.014  0.014
    2  0.007  0.000  0.011  0.019
    3  0.003  0.001  0.007  0.011
    4  0.007  0.000  0.012  0.019
    5  0.000  0.000  0.025  0.025
    6  0.002  0.000  0.012  0.014
    7  0.002  0.001  0.008  0.010
    8  0.001  0.000  0.012  0.013
    9  0.000  0.001  0.005  0.006
   10  0.000  0.000  0.009  0.009
   11  0.000  0.000  0.047  0.048
   12  0.000  0.000  0.014  0.014
   13  0.000  0.000  0.048  0.048
   14  0.000  0.000  0.049  0.050
   15  0.000  0.000  0.034  0.034
   16  0.000  0.000  0.015  0.015
   17  0.000  0.000  0.031  0.031
   18  0.000  0.000  0.015  0.015
   19  0.000  0.000  0.013  0.013
   20  0.000  0.000  0.042  0.042
   21  0.001  0.000  0.057  0.057
   22  0.000  0.000  0.032  0.033
   23  0.001  0.000  0.060  0.061
   24  0.000  0.000  0.036  0.037
   25  0.000  0.000  0.010  0.010
   26  0.000  0.000  0.012  0.013
   27  0.000  0.000  0.032  0.032
   28  0.000  0.000  0.012  0.012
   29  0.004  0.001  0.006  0.011
   30  0.012  0.001  0.010  0.022
   31  0.002  0.001  0.007  0.010
   32  0.002  0.001  0.013  0.016
   33  0.012  0.001  0.011  0.023
   34  0.004  0.001  0.014  0.018
   35  0.000  0.000  0.019  0.019
   36  0.000  0.003  0.001  0.005
   37  0.000  0.000  0.000  0.000
tot    0.062  0.016  0.752  0.830
 
band    19 # energy   -5.71299636 # occ.  2.00000000
 
ion      s      p      d    tot
    1  0.000  0.000  0.014  0.014
    2  0.000  0.000  0.010  0.010
    3  0.004  0.000  0.013  0.017
    4  0.000  0.000  0.009  0.010
    5  0.000  0.000  0.025  0.025
    6  0.006  0.001  0.008  0.015
    7  0.005  0.000  0.013  0.019
    8  0.007  0.000  0.009  0.016
    9  0.000  0.001  0.005  0.006
   10  0.000  0.000  0.016  0.017
   11  0.000  0.000  0.049  0.049
   12  0.000  0.000  0.011  0.011
   13  0.000  0.000  0.048  0.049
   14  0.000  0.000  0.047  0.047
   15  0.000  0.000  0.019  0.019
   16  0.000  0.000  0.010  0.010
   17  0.000  0.000  0.022  0.023
   18  0.000  0.000  0.038  0.039
   19  0.000  0.000  0.010  0.011
   20  0.001  0.000  0.064  0.065
   21  0.000  0.000  0.049  0.049
   22  0.000  0.000  0.035  0.035
   23  0.000  0.000  0.046  0.046
   24  0.000  0.001  0.031  0.031
   25  0.000  0.000  0.013  0.014
   26  0.000  0.000  0.011  0.011
   27  0.000  0.000  0.035  0.036
   28  0.000  0.000  0.012  0.012
   29  0.008  0.001  0.014  0.023
   30  0.000  0.001  0.010  0.011
   31  0.009  0.001  0.013  0.024
   32  0.010  0.001  0.007  0.018
   33  0.000  0.001  0.009  0.010
   34  0.008  0.001  0.006  0.015
   35  0.000  0.000  0.019  0.019
   36  0.000  0.003  0.001  0.005
   37  0.000  0.000  0.000  0.000
tot    0.062  0.016  0.752  0.830
 
band    20 # energy   -5.68765153 # occ.  2.00000000
 
ion      s      p      d    tot
    1  0.012  0.000  0.006  0.018
    2  0.000  0.001  0.011  0.012
    3  0.000  0.001  0.011  0.012
    4  0.000  0.001  0.011  0.012
    5  0.000  0.000  0.012  0.012
    6  0.000  0.001  0.011  0.012
    7  0.000  0.001  0.011  0.012
    8  0.000  0.001  0.011  0.012
    9  0.013  0.001  0.000  0.014
   10  0.000  0.000  0.028  0.028
   11  0.000  0.000  0.048  0.049
   12  0.000  0.000  0.028  0.028
   13  0.000  0.000  0.048  0.049
   14  0.000  0.000  0.048  0.049
   15  0.000  0.000  0.031  0.031
   16  0.000  0.000  0.028  0.028
   17  0.000  0.000  0.031  0.031
   18  0.000  0.000  0.031  0.031
   19  0.000  0.000  0.022  0.023
   20  0.001  0.000  0.046  0.047
   21  0.001  0.000  0.046  0.047
   22  0.000  0.000  0.028  0.029
   23  0.001  0.000  0.046  0.047
   24  0.000  0.000  0.028  0.029
   25  0.000  0.000  0.022  0.023
   26  0.000  0.000  0.022  0.023
   27  0.000  0.000  0.028  0.029
   28  0.006  0.000  0.000  0.007
   29  0.000  0.001  0.011  0.012
   30  0.000  0.001  0.011  0.012
   31  0.000  0.001  0.011  0.012
   32  0.000  0.001  0.011  0.012
   33  0.000  0.001  0.011  0.012
   34  0.000  0.001  0.011  0.012
   35  0.012  0.001  0.001  0.014
   36  0.001  0.000  0.004  0.005
   37  0.000  0.000  0.000  0.000
tot    0.049  0.014  0.770  0.833
 
band    21 # energy   -5.67392690 # occ.  2.00000000
 
ion      s      p      d    tot
    1  0.005  0.001  0.004  0.009
    2  0.000  0.001  0.019  0.020
    3  0.000  0.001  0.019  0.020
    4  0.000  0.001  0.019  0.020
    5  0.027  0.001  0.002  0.030
    6  0.000  0.001  0.019  0.020
    7  0.000  0.001  0.019  0.020
    8  0.000  0.001  0.019  0.020
    9  0.009  0.000  0.012  0.022
   10  0.000  0.000  0.040  0.040
   11  0.000  0.001  0.028  0.029
   12  0.000  0.000  0.040  0.040
   13  0.000  0.001  0.028  0.029
   14  0.000  0.001  0.028  0.029
   15  0.000  0.000  0.035  0.035
   16  0.000  0.000  0.040  0.040
   17  0.000  0.000  0.035  0.035
   18  0.000  0.000  0.035  0.035
   19  0.001  0.000  0.026  0.027
   20  0.000  0.000  0.023  0.024
   21  0.000  0.000  0.024  0.024
   22  0.001  0.000  0.019  0.021
   23  0.000  0.000  0.024  0.024
   24  0.001  0.000  0.019  0.021
   25  0.001  0.000  0.026  0.027
   26  0.001  0.000  0.026  0.027
   27  0.001  0.000  0.019  0.021
   28  0.010  0.000  0.006  0.016
   29  0.000  0.000  0.015  0.015
   30  0.000  0.000  0.015  0.015
   31  0.000  0.000  0.015  0.015
   32  0.000  0.000  0.015  0.015
   33  0.000  0.000  0.015  0.015
   34  0.000  0.000  0.015  0.015
   35  0.002  0.000  0.006  0.008
   36  0.002  0.001  0.001  0.004