 vasp.6.2.0 18Jan21 (build Jun 12 2021 23:27:24) complex                        
  
 executed on             LinuxIFC date 2022.05.28  00:37:34
 running on   28 total cores
 distrk:  each k-point on   28 cores,    1 groups
 distr:  one band on NCORE=   1 cores,   28 groups


--------------------------------------------------------------------------------------------------------


 INCAR:
   ISMEAR = -5
   SIGMA = 0.1
   ISPIN = 1
   EDIFF = 1.d-5
   EDIFFG = -0.01
   NSW = 0
   NELM = 150
   ENCUT = 500
   ISIF = 2
   IBRION = 2
   LREAL = Auto
   ALGO = Fast
   ICHARG = 11
   LORBIT = 10
   LCHARG = .F.
   LWAVE = .F.

 POTCAR:    PAW_PBE Au 04Oct2007                  
 POTCAR:    PAW_PBE V 08Apr2002                   
 POTCAR:    PAW_PBE H 15Jun2001                   
 POTCAR:    PAW_PBE O 08Apr2002                   
 -----------------------------------------------------------------------------
|                                                                             |
|           W    W    AA    RRRRR   N    N  II  N    N   GGGG   !!!           |
|           W    W   A  A   R    R  NN   N  II  NN   N  G    G  !!!           |
|           W    W  A    A  R    R  N N  N  II  N N  N  G       !!!           |
|           W WW W  AAAAAA  RRRRR   N  N N  II  N  N N  G  GGG   !            |
|           WW  WW  A    A  R   R   N   NN  II  N   NN  G    G                |
|           W    W  A    A  R    R  N    N  II  N    N   GGGG   !!!           |
|                                                                             |
|     For optimal performance we recommend to set                             |
|       NCORE = 2 up to number-of-cores-per-socket                            |
|     NCORE specifies how many cores store one orbital (NPAR=cpu/NCORE).      |
|     This setting can greatly improve the performance of VASP for DFT.       |
|     The default, NCORE=1 might be grossly inefficient on modern             |
|     multi-core architectures or massively parallel machines. Do your        |
|     own testing! More info at https://www.vasp.at/wiki/index.php/NCORE      |
|     Unfortunately you need to use the default for GW and RPA                |
|     calculations (for HF NCORE is supported but not extensively tested      |
|     yet).                                                                   |
|                                                                             |
 -----------------------------------------------------------------------------

 POTCAR:    PAW_PBE Au 04Oct2007                  
   VRHFIN =Au: s1d10                                                                                
   LEXCH  = PE                                                                                      
   EATOM  =   926.0867 eV,   68.0654 Ry                                                             
                                                                                                    
   TITEL  = PAW_PBE Au 04Oct2007                                                                    
   LULTRA =        F    use ultrasoft PP ?                                                          
   IUNSCR =        1    unscreen: 0-lin 1-nonlin 2-no                                               
   RPACOR =    2.330    partial core radius                                                         
   POMASS =  196.966; ZVAL   =   11.000    mass and valenz                                          
   RCORE  =    2.500    outmost cutoff radius                                                       
   RWIGS  =    2.840; RWIGS  =    1.503    wigner-seitz radius (au A)                               
   ENMAX  =  229.943; ENMIN  =  172.457 eV                                                          
   ICORE  =        3    local potential                                                             
   LCOR   =        T    correct aug charges                                                         
   LPAW   =        T    paw PP                                                                      
   EAUG   =  356.670                                                                                
   DEXC   =    0.000                                                                                
   RMAX   =    2.562    core radius for proj-oper                                                   
   RAUG   =    1.300    factor for augmentation sphere                                              
   RDEP   =    2.598    radius for radial grids                                                     
   RDEPT  =    2.193    core radius for aug-charge                                                  
                                                                                                    
   Atomic configuration                                                                             
   16 entries                                                                                       
     n  l   j            E        occ.                                                              
     1  0  0.50    -80748.5001   2.0000                                                             
     2  0  0.50    -14244.7466   2.0000                                                             
     2  1  1.50    -12310.9591   6.0000                                                             
     3  0  0.50     -3362.1768   2.0000                                                             
     3  1  1.50     -2801.5463   6.0000                                                             
     3  2  2.50     -2203.8206  10.0000                                                             
     4  0  0.50      -729.8168   2.0000                                                             
     4  1  1.50      -546.0527   6.0000                                                             
     4  2  2.50      -325.7302  10.0000                                                             
     4  3  3.50       -81.1472  14.0000                                                             
     5  0  0.50      -108.3201   2.0000                                                             
     5  1  1.50       -59.7479   6.0000                                                             
     5  2  2.50        -6.8783  10.0000                                                             
     6  0  0.50        -5.7602   1.0000                                                             
     6  1  1.50        -6.8029   0.0000                                                             
     5  3  2.50        -1.3606   0.0000                                                             
   Description                                                                                      
     l       E           TYP  RCUT    TYP  RCUT                                                     
     2     -6.8782861     23  2.500                                                                 
     2     -8.2388687     23  2.500                                                                 
     0     -5.7601759     23  2.500                                                                 
     0     -0.8493231     23  2.500                                                                 
     1     -2.7211652     23  2.500                                                                 
     1     27.2116520     23  2.500                                                                 
     3     -1.3605826     23  2.500                                                                 
  local pseudopotential read in
  partial core-charges read in
  partial kinetic energy density read in
  atomic valenz-charges read in
  non local Contribution for L=           2  read in
    real space projection operators read in
  non local Contribution for L=           2  read in
    real space projection operators read in
  non local Contribution for L=           0  read in
    real space projection operators read in
  non local Contribution for L=           0  read in
    real space projection operators read in
  non local Contribution for L=           1  read in
    real space projection operators read in
  non local Contribution for L=           1  read in
    real space projection operators read in
    PAW grid and wavefunctions read in
 
   number of l-projection  operators is LMAX  =           6
   number of lm-projection operators is LMMAX =          18
 
 POTCAR:    PAW_PBE V 08Apr2002                   
   VRHFIN =V: p6 d4 s1                                                                              
   LEXCH  = PE                                                                                      
   EATOM  =   170.8679 eV,   12.5584 Ry                                                             
                                                                                                    
   TITEL  = PAW_PBE V 08Apr2002                                                                     
   LULTRA =        F    use ultrasoft PP ?                                                          
   IUNSCR =        1    unscreen: 0-lin 1-nonlin 2-no                                               
   RPACOR =    2.000    partial core radius                                                         
   POMASS =   50.941; ZVAL   =    5.000    mass and valenz                                          
   RCORE  =    2.700    outmost cutoff radius                                                       
   RWIGS  =    2.500; RWIGS  =    1.323    wigner-seitz radius (au A)                               
   ENMAX  =  192.543; ENMIN  =  144.408 eV                                                          
   RCLOC  =    1.779    cutoff for local pot                                                        
   LCOR   =        T    correct aug charges                                                         
   LPAW   =        T    paw PP                                                                      
   EAUG   =  358.662                                                                                
   DEXC   =    0.000                                                                                
   RMAX   =    2.768    core radius for proj-oper                                                   
   RAUG   =    1.300    factor for augmentation sphere                                              
   RDEP   =    2.762    radius for radial grids                                                     
   RDEPT  =    2.240    core radius for aug-charge                                                  
                                                                                                    
   Atomic configuration                                                                             
    9 entries                                                                                       
     n  l   j            E        occ.                                                              
     1  0  0.50     -5360.7193   2.0000                                                             
     2  0  0.50      -598.4546   2.0000                                                             
     2  1  1.50      -499.0155   6.0000                                                             
     3  0  0.50       -66.5711   2.0000                                                             
     3  1  1.50       -40.5282   6.0000                                                             
     3  2  2.50        -2.4291   4.0000                                                             
     4  0  0.50        -3.8743   1.0000                                                             
     4  1  0.50        -2.7212   0.0000                                                             
     4  3  2.50        -1.3606   0.0000                                                             
   Description                                                                                      
     l       E           TYP  RCUT    TYP  RCUT                                                     
     2     -2.4290901     23  2.700                                                                 
     2     -3.7896727     23  2.700                                                                 
     0     -3.8742752     23  2.700                                                                 
     0     27.2116520     23  2.700                                                                 
     1     -2.7211652     23  2.700                                                                 
     1     27.2116520     23  2.700                                                                 
  local pseudopotential read in
  partial core-charges read in
  partial kinetic energy density read in
  atomic valenz-charges read in
  non local Contribution for L=           2  read in
    real space projection operators read in
  non local Contribution for L=           2  read in
    real space projection operators read in
  non local Contribution for L=           0  read in
    real space projection operators read in
  non local Contribution for L=           0  read in
    real space projection operators read in
  non local Contribution for L=           1  read in
    real space projection operators read in
  non local Contribution for L=           1  read in
    real space projection operators read in
    PAW grid and wavefunctions read in
 
   number of l-projection  operators is LMAX  =           6
   number of lm-projection operators is LMMAX =          18
 
 POTCAR:    PAW_PBE H 15Jun2001                   
   VRHFIN =H: ultrasoft test                                                                        
   LEXCH  = PE                                                                                      
   EATOM  =    12.4884 eV,    0.9179 Ry                                                             
                                                                                                    
   TITEL  = PAW_PBE H 15Jun2001                                                                     
   LULTRA =        F    use ultrasoft PP ?                                                          
   IUNSCR =        0    unscreen: 0-lin 1-nonlin 2-no                                               
   RPACOR =    0.000    partial core radius                                                         
   POMASS =    1.000; ZVAL   =    1.000    mass and valenz                                          
   RCORE  =    1.100    outmost cutoff radius                                                       
   RWIGS  =    0.700; RWIGS  =    0.370    wigner-seitz radius (au A)                               
   ENMAX  =  250.000; ENMIN  =  200.000 eV                                                          
   RCLOC  =    0.701    cutoff for local pot                                                        
   LCOR   =        T    correct aug charges                                                         
   LPAW   =        T    paw PP                                                                      
   EAUG   =  400.000                                                                                
   RMAX   =    1.123    core radius for proj-oper                                                   
   RAUG   =    1.200    factor for augmentation sphere                                              
   RDEP   =    1.112    radius for radial grids                                                     
   RDEPT  =    0.926    core radius for aug-charge                                                  
                                                                                                    
   Atomic configuration                                                                             
    2 entries                                                                                       
     n  l   j            E        occ.                                                              
     1  0  0.50        -6.4927   1.0000                                                             
     2  1  0.50        -3.4015   0.0000                                                             
   Description                                                                                      
     l       E           TYP  RCUT    TYP  RCUT                                                     
     0     -6.4927494     23  1.100                                                                 
     0      6.8029130     23  1.100                                                                 
     1     -4.0817478     23  1.100                                                                 
  local pseudopotential read in
  atomic valenz-charges read in
  non local Contribution for L=           0  read in
    real space projection operators read in
  non local Contribution for L=           0  read in
    real space projection operators read in
  non local Contribution for L=           1  read in
    real space projection operators read in
    PAW grid and wavefunctions read in
 
   number of l-projection  operators is LMAX  =           3
   number of lm-projection operators is LMMAX =           5
 
 POTCAR:    PAW_PBE O 08Apr2002                   
   VRHFIN =O: s2p4                                                                                  
   LEXCH  = PE                                                                                      
   EATOM  =   432.3788 eV,   31.7789 Ry                                                             
                                                                                                    
   TITEL  = PAW_PBE O 08Apr2002                                                                     
   LULTRA =        F    use ultrasoft PP ?                                                          
   IUNSCR =        1    unscreen: 0-lin 1-nonlin 2-no                                               
   RPACOR =    1.200    partial core radius                                                         
   POMASS =   16.000; ZVAL   =    6.000    mass and valenz                                          
   RCORE  =    1.520    outmost cutoff radius                                                       
   RWIGS  =    1.550; RWIGS  =    0.820    wigner-seitz radius (au A)                               
   ENMAX  =  400.000; ENMIN  =  300.000 eV                                                          
   ICORE  =        2    local potential                                                             
   LCOR   =        T    correct aug charges                                                         
   LPAW   =        T    paw PP                                                                      
   EAUG   =  605.392                                                                                
   DEXC   =    0.000                                                                                
   RMAX   =    1.553    core radius for proj-oper                                                   
   RAUG   =    1.300    factor for augmentation sphere                                              
   RDEP   =    1.550    radius for radial grids                                                     
   RDEPT  =    1.329    core radius for aug-charge                                                  
                                                                                                    
   Atomic configuration                                                                             
    4 entries                                                                                       
     n  l   j            E        occ.                                                              
     1  0  0.50      -514.6923   2.0000                                                             
     2  0  0.50       -23.9615   2.0000                                                             
     2  1  0.50        -9.0305   4.0000                                                             
     3  2  1.50        -9.5241   0.0000                                                             
   Description                                                                                      
     l       E           TYP  RCUT    TYP  RCUT                                                     
     0    -23.9615318     23  1.200                                                                 
     0     -9.5240782     23  1.200                                                                 
     1     -9.0304911     23  1.520                                                                 
     1      8.1634956     23  1.520                                                                 
     2     -9.5240782      7  1.500                                                                 
  local pseudopotential read in
  partial core-charges read in
  partial kinetic energy density read in
  kinetic energy density of atom read in
  atomic valenz-charges read in
  non local Contribution for L=           0  read in
    real space projection operators read in
  non local Contribution for L=           0  read in
    real space projection operators read in
  non local Contribution for L=           1  read in
    real space projection operators read in
  non local Contribution for L=           1  read in
    real space projection operators read in
    PAW grid and wavefunctions read in
 
   number of l-projection  operators is LMAX  =           4
   number of lm-projection operators is LMMAX =           8
 
 Optimization of the real space projectors (new method)

 maximal supplied QI-value         = 15.12
 optimisation between [QCUT,QGAM] = [ 11.34, 22.83] = [ 36.00,145.93] Ry 
 Optimized for a Real-space Cutoff    1.39 Angstroem

   l    n(q)    QCUT    max X(q) W(low)/X(q) W(high)/X(q)  e(spline) 
   2      9    11.338    60.898    0.39E-03    0.42E-03    0.21E-06
   2      9    11.338    58.894    0.40E-03    0.42E-03    0.22E-06
   0      9    11.338   109.617    0.13E-03    0.20E-04    0.13E-06
   0      9    11.338    75.026    0.13E-03    0.20E-04    0.13E-06
   1      9    11.338    16.344    0.33E-04    0.24E-03    0.18E-06
   1      9    11.338    10.160    0.26E-04    0.19E-03    0.15E-06
 Optimization of the real space projectors (new method)

 maximal supplied QI-value         = 13.98
 optimisation between [QCUT,QGAM] = [ 11.33, 22.79] = [ 35.93,145.49] Ry 
 Optimized for a Real-space Cutoff    1.56 Angstroem

   l    n(q)    QCUT    max X(q) W(low)/X(q) W(high)/X(q)  e(spline) 
   2     10    11.327    96.114    0.36E-03    0.35E-03    0.42E-06
   2     10    11.327    88.986    0.37E-03    0.35E-03    0.42E-06
   0     11    11.327    20.919    0.40E-04    0.56E-04    0.79E-06
   0     11    11.327     9.593    0.30E-04    0.41E-04    0.60E-06
   1     10    11.327    11.615    0.15E-03    0.10E-03    0.19E-06
   1     10    11.327     7.031    0.11E-03    0.73E-04    0.14E-06
 Optimization of the real space projectors (new method)

 maximal supplied QI-value         = 34.20
 optimisation between [QCUT,QGAM] = [ 11.29, 22.57] = [ 35.68,142.71] Ry 
 Optimized for a Real-space Cutoff    1.16 Angstroem

   l    n(q)    QCUT    max X(q) W(low)/X(q) W(high)/X(q)  e(spline) 
   0      8    11.287    19.460    0.40E-03    0.73E-03    0.16E-06
   0      8    11.287    12.209    0.38E-03    0.70E-03    0.15E-06
   1      7    11.287     4.655    0.22E-03    0.25E-04    0.22E-06
 Optimization of the real space projectors (new method)

 maximal supplied QI-value         = 24.76
 optimisation between [QCUT,QGAM] = [ 11.39, 22.77] = [ 36.31,145.25] Ry 
 Optimized for a Real-space Cutoff    1.00 Angstroem

   l    n(q)    QCUT    max X(q) W(low)/X(q) W(high)/X(q)  e(spline) 
   0      7    11.387    20.381    0.39E-03    0.13E-02    0.15E-06
   0      7    11.387    15.268    0.42E-03    0.14E-02    0.17E-06
   1      6    11.387     5.964    0.41E-03    0.11E-02    0.17E-06
   1      6    11.387     5.382    0.39E-03    0.87E-03    0.15E-06
  PAW_PBE Au 04Oct2007                  :
 energy of atom  1       EATOM= -926.0867
 kinetic energy error for atom=    0.0042 (will be added to EATOM!!)
  PAW_PBE V 08Apr2002                   :
 energy of atom  2       EATOM= -170.8679
 kinetic energy error for atom=    0.0003 (will be added to EATOM!!)
  PAW_PBE H 15Jun2001                   :
 energy of atom  3       EATOM=  -12.4884
 kinetic energy error for atom=    0.0020 (will be added to EATOM!!)
  PAW_PBE O 08Apr2002                   :
 energy of atom  4       EATOM= -432.3788
 kinetic energy error for atom=    0.0224 (will be added to EATOM!!)
 
 
 POSCAR: Au-V-H2O
  positions in direct lattice
  velocities in cartesian coordinates
 exchange correlation table for  LEXCH =        8
   RHO(1)=    0.500       N(1)  =     2000
   RHO(2)=  100.500       N(2)  =     4000

 VTST: version 3.2, (02/03/18)

 CHAIN: initializing optimizer
 
 OPT: Using VASP Conjugate-Gradient optimizer
 CHAIN: Read ICHAIN            0
 
 POSCAR: Au-V-H2O
  positions in direct lattice
  velocities in cartesian coordinates
 


--------------------------------------------------------------------------------------------------------


 ion  position               nearest neighbor table
   1  0.000  0.000  0.213-  16 2.94  12 2.94   6 2.94   8 2.94   7 2.94   3 2.94  10 2.94   4 2.94
                             2 2.94
   2  0.333  0.000  0.213-   9 2.94  11 2.94  17 2.94  10 2.94   8 2.94   4 2.94   5 2.94   1 2.94
                             3 2.94
   3  0.667  0.000  0.213-   7 2.94  18 2.94  12 2.94   1 2.94  11 2.94   5 2.94   6 2.94   9 2.94
                             2 2.94
   4  0.000  0.333  0.213-  10 2.94   6 2.94   5 2.94  13 2.94   2 2.94  15 2.94   9 2.94   1 2.94
                             7 2.94
   5  0.333  0.333  0.213-  13 2.94   7 2.94  11 2.94   4 2.94   2 2.94  14 2.94   3 2.94   8 2.94
                             6 2.94
   6  0.667  0.333  0.213-  15 2.94  14 2.94   1 2.94  12 2.94   4 2.94   9 2.94   8 2.94   3 2.94
                             5 2.94
   7  0.000  0.667  0.213-  18 2.94   3 2.94  16 2.94   5 2.94   1 2.94  13 2.94   8 2.94   4 2.94
                             9 2.94
   8  0.333  0.667  0.213-   9 2.94  17 2.94   1 2.94   2 2.94  14 2.94  16 2.94   6 2.94   7 2.94
                             5 2.94
   9  0.667  0.667  0.213-   2 2.94   8 2.94  17 2.94   6 2.94  15 2.94   4 2.94   3 2.94  18 2.94
                             7 2.94
  10  0.111  0.111  0.310-  20 2.93  26 2.94  19 2.94  11 2.94  17 2.94   2 2.94   4 2.94   1 2.94
                            12 2.94  16 2.94  13 2.94  15 2.94
  11  0.444  0.111  0.310-  20 2.92  21 2.92  27 2.94  13 2.94   2 2.94  10 2.94  17 2.94   5 2.94
                             3 2.94  18 2.94  14 2.94  12 2.94
  12  0.778  0.111  0.310-  21 2.93  25 2.94  19 2.94  16 2.94  18 2.94   1 2.94  14 2.94  15 2.94
                             3 2.94   6 2.94  10 2.94  11 2.94
  13  0.111  0.444  0.310-  23 2.92  20 2.92  22 2.94   5 2.94  18 2.94  11 2.94   7 2.94   4 2.94
                            16 2.94  10 2.94  14 2.94  15 2.94
  14  0.444  0.444  0.310-  21 2.92  23 2.92  24 2.94  15 2.94   6 2.94  12 2.94   8 2.94  17 2.94
                             5 2.94  16 2.94  13 2.94  11 2.94
  15  0.778  0.444  0.310-  24 2.92  22 2.92  19 2.93  14 2.94   6 2.94  17 2.94  12 2.94   9 2.94
                             4 2.94  10 2.94  13 2.94  18 2.94
  16  0.111  0.778  0.310-  23 2.93  25 2.94  26 2.94  18 2.94  12 2.94   7 2.94   1 2.94   8 2.94
                            13 2.94  10 2.94  14 2.94  17 2.94
  17  0.444  0.778  0.310-  27 2.92  24 2.92  26 2.93   9 2.94  15 2.94   2 2.94  10 2.94  11 2.94
                             8 2.94  14 2.94  16 2.94  18 2.94
  18  0.778  0.778  0.310-  22 2.92  27 2.92  25 2.93  16 2.94   7 2.94  13 2.94  12 2.94   3 2.94
                            11 2.94   9 2.94  15 2.94  17 2.94
  19  0.889  0.222  0.407-  15 2.93  10 2.94  12 2.94  24 2.94  22 2.94  28 2.94  26 2.94  25 2.94
                            21 2.95  20 2.95  32 3.03  31 3.03
  20  0.223  0.223  0.407-  36 2.72  23 2.92  21 2.92  11 2.92  13 2.92  10 2.93  29 2.95  31 2.95
                            26 2.95  19 2.95  27 2.95  22 2.95
  21  0.554  0.223  0.407-  36 2.72  20 2.92  23 2.92  14 2.92  11 2.92  12 2.93  30 2.95  32 2.95
                            25 2.95  19 2.95  27 2.95  24 2.95
  22  0.887  0.557  0.407-  24 2.91  27 2.91  18 2.92  15 2.92  25 2.94  19 2.94  13 2.94  23 2.95
                            20 2.95  35 2.96  33 2.99  31 2.99
  23  0.223  0.554  0.407-  36 2.72  20 2.92  21 2.92  13 2.92  14 2.92  16 2.93  33 2.95  34 2.95
                            25 2.95  26 2.95  22 2.95  24 2.95
  24  0.557  0.557  0.407-  27 2.91  22 2.91  15 2.92  17 2.92  26 2.94  19 2.94  14 2.94  21 2.95
                            23 2.95  35 2.96  32 2.99  34 2.99
  25  0.889  0.889  0.407-  18 2.93  16 2.94  12 2.94  22 2.94  27 2.94  28 2.94  19 2.94  26 2.94
                            23 2.95  21 2.95  33 3.03  30 3.03
  26  0.222  0.889  0.407-  17 2.93  10 2.94  16 2.94  27 2.94  24 2.94  28 2.94  19 2.94  25 2.94
                            20 2.95  23 2.95  29 3.03  34 3.03
  27  0.557  0.887  0.407-  24 2.91  22 2.91  17 2.92  18 2.92  26 2.94  25 2.94  11 2.94  20 2.95
                            21 2.95  35 2.96  29 2.99  30 2.99
  28  0.000  0.000  0.504-  25 2.94  19 2.94  26 2.94  34 2.99  32 2.99  33 2.99  30 2.99  31 2.99
                            29 2.99
  29  0.334  0.011  0.506-  30 2.83  31 2.85  36 2.86  20 2.95  35 2.98  27 2.99  28 2.99  26 3.03
                            34 3.13
  30  0.655  0.011  0.506-  29 2.83  32 2.85  36 2.86  21 2.95  35 2.98  27 2.99  28 2.99  25 3.03
                            33 3.13
  31  0.011  0.334  0.506-  33 2.83  29 2.85  36 2.86  20 2.95  35 2.98  22 2.99  28 2.99  19 3.03
                            32 3.13
  32  0.655  0.334  0.506-  34 2.83  30 2.85  36 2.86  21 2.95  35 2.98  24 2.99  28 2.99  19 3.03
                            31 3.13
  33  0.011  0.655  0.506-  31 2.83  34 2.85  36 2.86  23 2.95  35 2.98  22 2.99  28 2.99  25 3.03
                            30 3.13
  34  0.334  0.655  0.506-  32 2.83  33 2.85  36 2.86  23 2.95  35 2.98  24 2.99  28 2.99  26 3.03
                            29 3.13
  35  0.667  0.667  0.505-  24 2.96  27 2.96  22 2.96  29 2.98  34 2.98  32 2.98  31 2.98  30 2.98
                            33 2.98
  36  0.333  0.333  0.493-  39 2.15  20 2.72  23 2.72  21 2.72  33 2.86  31 2.86  29 2.86  30 2.86
                            34 2.86  32 2.86
  37  0.279  0.263  0.590-  39 0.98
  38  0.458  0.264  0.590-  39 0.98
  39  0.334  0.333  0.580-  38 0.98  37 0.98  36 2.15
 
  LATTYP: Found a hexagonal cell.
 ALAT       =     8.8135128021
 C/A-ratio  =     2.8075332270
  
  Lattice vectors:
  
 A1 = (  -4.4067569092,  -7.6327256898,   0.0000000000)
 A2 = (   8.8135128021,   0.0000000000,   0.0000000000)
 A3 = (   0.0000000000,   0.0000000000,  24.7442300386)


Analysis of symmetry for initial positions (statically):
=====================================================================
 Subroutine PRICEL returns:
 Original cell was already a primitive cell.
 

 Routine SETGRP: Setting up the symmetry group for a 
 hexagonal supercell.


 Subroutine GETGRP returns: Found  1 space group operations
 (whereof  1 operations were pure point group operations)
 out of a pool of 24 trial point group operations.


The static configuration has the point symmetry C_1 .


Analysis of symmetry for dynamics (positions and initial velocities):
=====================================================================
 Subroutine PRICEL returns:
 Original cell was already a primitive cell.
 

 Routine SETGRP: Setting up the symmetry group for a 
 hexagonal supercell.


 Subroutine GETGRP returns: Found  1 space group operations
 (whereof  1 operations were pure point group operations)
 out of a pool of 24 trial point group operations.


The dynamic configuration has the point symmetry C_1 .


Analysis of constrained symmetry for selective dynamics:
=====================================================================
 Subroutine PRICEL returns:
 Original cell was already a primitive cell.
 

 Routine SETGRP: Setting up the symmetry group for a 
 hexagonal supercell.


 Subroutine GETGRP returns: Found  1 space group operations
 (whereof  1 operations were pure point group operations)
 out of a pool of 24 trial point group operations.


The constrained configuration has the point symmetry C_1 .


 Subroutine INISYM returns: Found  1 space group operations
 (whereof  1 operations are pure point group operations),
 and found     1 'primitive' translations


----------------------------------------------------------------------------------------

                                     Primitive cell                                     

  volume of cell :    1664.5722

  direct lattice vectors                    reciprocal lattice vectors
     8.813512802  0.000000000  0.000000000     0.113462137 -0.065507406  0.000000000
     4.406756909  7.632725690  0.000000000     0.000000000  0.131014796  0.000000000
     0.000000000  0.000000000 24.744230039     0.000000000  0.000000000  0.040413462

  length of vectors
     8.813512802  8.813512802 24.744230039     0.131014796  0.131014796  0.040413462

  position of ions in fractional coordinates (direct lattice)
     0.000000000  0.000000000  0.213398434
     0.333333343  0.000000000  0.213398434
     0.666666687  0.000000000  0.213398434
     1.000000000  0.333333343  0.213398434
     0.333333313  0.333333343  0.213398434
     0.666666687  0.333333343  0.213398434
     1.000000000  0.666666687  0.213398434
     0.333333343  0.666666687  0.213398434
     0.666666627  0.666666687  0.213398434
     0.111111119  0.111111112  0.310339584
     0.444444418  0.111111112  0.310339584
     0.777777791  0.111111112  0.310339584
     0.111111127  0.444444448  0.310339584
     0.444444478  0.444444448  0.310339584
     0.777777731  0.444444448  0.310339584
     0.111111090  0.777777791  0.310339584
     0.444444448  0.777777791  0.310339584
     0.777777851  0.777777791  0.310339584
     0.888779964  0.222440088  0.407183943
     0.222983025  0.222983010  0.406628406
     0.554034011  0.222983010  0.406628406
     0.886742282  0.556628889  0.406762857
     0.222982980  0.554034011  0.406628406
     0.556628889  0.556628889  0.406762857
     0.888779964  0.888779964  0.407183943
     0.222440118  0.888779964  0.407183943
     0.556628829  0.886742282  0.406762857
     0.000000000  0.000000000  0.504069524
     0.333994608  0.010639071  0.506032433
     0.655366352  0.010639071  0.506032433
     0.010639071  0.333994608  0.506032433
     0.655366352  0.333994608  0.506032433
     0.010639071  0.655366352  0.506032433
     0.333994608  0.655366352  0.506032433
     0.666666627  0.666666687  0.505181194
     0.333333313  0.333333343  0.493096793
     0.279190439  0.263148062  0.589955213
     0.457782885  0.263573458  0.590019215
     0.333500953  0.333154015  0.580163512

  ion indices of the primitive-cell ions
   primitive index   ion index
                 1           1
                 2           2
                 3           3
                 4           4
                 5           5
                 6           6
                 7           7
                 8           8
                 9           9
                10          10
                11          11
                12          12
                13          13
                14          14
                15          15
                16          16
                17          17
                18          18
                19          19
                20          20
                21          21
                22          22
                23          23
                24          24
                25          25
                26          26
                27          27
                28          28
                29          29
                30          30
                31          31
                32          32
                33          33
                34          34
                35          35
                36          36
                37          37
                38          38
                39          39

----------------------------------------------------------------------------------------

 
 
 KPOINTS: Automatic mesh                          

Automatic generation of k-mesh.
 Grid dimensions read from file:
 generate k-points for:    8    8    1

 Generating k-lattice:

  Cartesian coordinates                     Fractional coordinates (reciprocal lattice)
     0.014182767 -0.008188426  0.000000000     0.125000000 -0.000000000  0.000000000
     0.000000000  0.016376850  0.000000000     0.000000000  0.125000000  0.000000000
     0.000000000  0.000000000  0.040413462     0.000000000  0.000000000  1.000000000

  Length of vectors
     0.016376850  0.016376850  0.040413462

  Shift w.r.t. Gamma in fractional coordinates (k-lattice)
     0.000000000  0.000000000  0.000000000

 TETIRR: Found    192 inequivalent tetrahedra from      384
 
 Subroutine IBZKPT returns following result:
 ===========================================
 
 Found     34 irreducible k-points:
 
 Following reciprocal coordinates:
            Coordinates               Weight
  0.000000  0.000000  0.000000      1.000000
  0.125000 -0.000000  0.000000      2.000000
  0.125000  0.125000  0.000000      2.000000
  0.000000  0.125000  0.000000      2.000000
  0.250000 -0.000000  0.000000      2.000000
  0.250000  0.250000  0.000000      2.000000
  0.000000  0.250000  0.000000      2.000000
  0.375000  0.000000  0.000000      2.000000
  0.375000  0.375000  0.000000      2.000000
  0.000000  0.375000  0.000000      2.000000
  0.500000 -0.000000  0.000000      1.000000
  0.500000  0.500000  0.000000      1.000000
  0.000000  0.500000  0.000000      1.000000
  0.250000  0.125000  0.000000      2.000000
  0.125000  0.250000  0.000000      2.000000
 -0.125000  0.125000  0.000000      2.000000
  0.375000  0.125000  0.000000      2.000000
  0.250000  0.375000  0.000000      2.000000
 -0.125000  0.250000  0.000000      2.000000
  0.250000 -0.125000  0.000000      2.000000
 -0.125000 -0.375000  0.000000      2.000000
 -0.375000 -0.250000  0.000000      2.000000
  0.500000  0.125000  0.000000      2.000000
  0.375000  0.500000  0.000000      2.000000
 -0.125000  0.375000  0.000000      2.000000
  0.375000 -0.125000  0.000000      2.000000
 -0.125000  0.500000  0.000000      2.000000
  0.500000 -0.375000  0.000000      2.000000
  0.500000  0.250000  0.000000      2.000000
  0.250000  0.500000  0.000000      2.000000
 -0.250000  0.250000  0.000000      2.000000
 -0.375000  0.250000  0.000000      2.000000
  0.375000 -0.375000  0.000000      2.000000
 -0.250000  0.375000  0.000000      2.000000
 
 Following cartesian coordinates:
            Coordinates               Weight
  0.000000  0.000000  0.000000      1.000000
  0.014183 -0.008188  0.000000      2.000000
  0.014183  0.008188  0.000000      2.000000
  0.000000  0.016377  0.000000      2.000000
  0.028366 -0.016377  0.000000      2.000000
  0.028366  0.016377  0.000000      2.000000
  0.000000  0.032754  0.000000      2.000000
  0.042548 -0.024565  0.000000      2.000000
  0.042548  0.024565  0.000000      2.000000
  0.000000  0.049131  0.000000      2.000000
  0.056731 -0.032754  0.000000      1.000000
  0.056731  0.032754  0.000000      1.000000
  0.000000  0.065507  0.000000      1.000000
  0.028366 -0.000000  0.000000      2.000000
  0.014183  0.024565  0.000000      2.000000
 -0.014183  0.024565  0.000000      2.000000
  0.042548 -0.008188  0.000000      2.000000
  0.028366  0.032754  0.000000      2.000000
 -0.014183  0.040942  0.000000      2.000000
  0.028366 -0.032754  0.000000      2.000000
 -0.014183 -0.040942  0.000000      2.000000
 -0.042548 -0.008188  0.000000      2.000000
  0.056731 -0.016377  0.000000      2.000000
  0.042548  0.040942  0.000000      2.000000
 -0.014183  0.057319  0.000000      2.000000
  0.042548 -0.040942  0.000000      2.000000
 -0.014183  0.073696  0.000000      2.000000
  0.056731 -0.081884  0.000000      2.000000
  0.056731 -0.000000  0.000000      2.000000
  0.028366  0.049131  0.000000      2.000000
 -0.028366  0.049131  0.000000      2.000000
 -0.042548  0.057319  0.000000      2.000000
  0.042548 -0.073696  0.000000      2.000000
 -0.028366  0.065507  0.000000      2.000000
 


--------------------------------------------------------------------------------------------------------




 Dimension of arrays:
   k-points           NKPTS =     34   k-points in BZ     NKDIM =     34   number of bands    NBANDS=    252
   number of dos      NEDOS =    301   number of ions     NIONS =     39
   non local maximal  LDIM  =      6   non local SUM 2l+1 LMDIM =     18
   total plane-waves  NPLWV = 322560
   max r-space proj   IRMAX =   3156   max aug-charges    IRDMAX=  12048
   dimension x,y,z NGX =    48 NGY =   48 NGZ =  140
   dimension x,y,z NGXF=    96 NGYF=   96 NGZF=  280
   support grid    NGXF=    96 NGYF=   96 NGZF=  280
   ions per type =              35   1   2   1
   NGX,Y,Z   is equivalent  to a cutoff of   9.05,  9.05,  9.41 a.u.
   NGXF,Y,Z  is equivalent  to a cutoff of  18.11, 18.11, 18.81 a.u.

 SYSTEM =  unknown system                          
 POSCAR =  Au-V-H2O                                

 Startparameter for this run:
   NWRITE =      2    write-flag & timer
   PREC   = normal    normal or accurate (medium, high low for compatibility)
   ISTART =      0    job   : 0-new  1-cont  2-samecut
   ICHARG =     11    charge: 1-file 2-atom 10-const
   ISPIN  =      1    spin polarized calculation?
   LNONCOLLINEAR =      F non collinear calculations
   LSORBIT =      F    spin-orbit coupling
   INIWAV =      1    electr: 0-lowe 1-rand  2-diag
   LASPH  =      F    aspherical Exc in radial PAW
   METAGGA=      F    non-selfconsistent MetaGGA calc.

 Electronic Relaxation 1
   ENCUT  =  500.0 eV  36.75 Ry    6.06 a.u.  16.07 16.07 45.11*2*pi/ulx,y,z
   ENINI  =  500.0     initial cutoff
   ENAUG  =  605.4 eV  augmentation charge cutoff
   NELM   =    150;   NELMIN=  2; NELMDL= -5     # of ELM steps 
   EDIFF  = 0.1E-04   stopping-criterion for ELM
   LREAL  =      T    real-space projection
   NLSPLINE    = F    spline interpolate recip. space projectors
   LCOMPAT=      F    compatible to vasp.4.4
   GGA_COMPAT  = T    GGA compatible to vasp.4.4-vasp.4.6
   LMAXPAW     = -100 max onsite density
   LMAXMIX     =    2 max onsite mixed and CHGCAR
   VOSKOWN=      0    Vosko Wilk Nusair interpolation
   ROPT   =   -0.00050  -0.00050  -0.00050  -0.00050
 Ionic relaxation
   EDIFFG = -.1E-01   stopping-criterion for IOM
   NSW    =      0    number of steps for IOM
   NBLOCK =      1;   KBLOCK =      1    inner block; outer block 
   IBRION =     -1    ionic relax: 0-MD 1-quasi-New 2-CG
   NFREE  =      1    steps in history (QN), initial steepest desc. (CG)
   ISIF   =      2    stress and relaxation
   IWAVPR =     10    prediction:  0-non 1-charg 2-wave 3-comb
   ISYM   =      2    0-nonsym 1-usesym 2-fastsym
   LCORR  =      T    Harris-Foulkes like correction to forces

   POTIM  = 0.5000    time-step for ionic-motion
   TEIN   =    0.0    initial temperature
   TEBEG  =    0.0;   TEEND  =   0.0 temperature during run
   SMASS  =  -3.00    Nose mass-parameter (am)
   estimated Nose-frequenzy (Omega)   =  0.10E-29 period in steps = 0.13E+47 mass=  -0.178E-26a.u.
   SCALEE = 1.0000    scale energy and forces
   NPACO  =    256;   APACO  = 16.0  distance and # of slots for P.C.
   PSTRESS=    0.0 pullay stress

  Mass of Ions in am
   POMASS = 196.97 50.94  1.00 16.00
  Ionic Valenz
   ZVAL   =  11.00  5.00  1.00  6.00
  Atomic Wigner-Seitz radii
   RWIGS  =  -1.00 -1.00 -1.00 -1.00
  virtual crystal weights 
   VCA    =   1.00  1.00  1.00  1.00
   NELECT =     398.0000    total number of electrons
   NUPDOWN=      -1.0000    fix difference up-down

 DOS related values:
   EMIN   =  10.00;   EMAX   =-10.00  energy-range for DOS
   EFERMI =   0.00
   ISMEAR =    -5;   SIGMA  =   0.10  broadening in eV -4-tet -1-fermi 0-gaus

 Electronic relaxation 2 (details)
   IALGO  =     68    algorithm
   LDIAG  =      T    sub-space diagonalisation (order eigenvalues)
   LSUBROT=      F    optimize rotation matrix (better conditioning)
   TURBO    =      0    0=normal 1=particle mesh
   IRESTART =      0    0=no restart 2=restart with 2 vectors
   NREBOOT  =      0    no. of reboots
   NMIN     =      0    reboot dimension
   EREF     =   0.00    reference energy to select bands
   IMIX   =      4    mixing-type and parameters
     AMIX     =   0.40;   BMIX     =  1.00
     AMIX_MAG =   1.60;   BMIX_MAG =  1.00
     AMIN     =   0.10
     WC   =   100.;   INIMIX=   1;  MIXPRE=   1;  MAXMIX= -45

 Intra band minimization:
   WEIMIN = 0.0000     energy-eigenvalue tresh-hold
   EBREAK =  0.99E-08  absolut break condition
   DEPER  =   0.30     relativ break condition  

   TIME   =   0.40     timestep for ELM

  volume/ion in A,a.u.               =      42.68       288.03
  Fermi-wavevector in a.u.,A,eV,Ry     =   1.016097  1.920144 14.047365  1.032452
  Thomas-Fermi vector in A             =   2.149420
 
 Write flags
   LWAVE        =      F    write WAVECAR
   LDOWNSAMPLE  =      F    k-point downsampling of WAVECAR
   LCHARG       =      F    write CHGCAR
   LVTOT        =      F    write LOCPOT, total local potential
   LVHAR        =      F    write LOCPOT, Hartree potential only
   LELF         =      F    write electronic localiz. function (ELF)
   LORBIT       =     10    0 simple, 1 ext, 2 COOP (PROOUT), +10 PAW based schemes


 Dipole corrections
   LMONO  =      F    monopole corrections only (constant potential shift)
   LDIPOL =      F    correct potential (dipole corrections)
   IDIPOL =      0    1-x, 2-y, 3-z, 4-all directions 
   EPSILON=  1.0000000 bulk dielectric constant

 Exchange correlation treatment:
   GGA     =    --    GGA type
   LEXCH   =     8    internal setting for exchange type
   VOSKOWN=      0    Vosko Wilk Nusair interpolation
   LHFCALC =     F    Hartree Fock is set to
   LHFONE  =     F    Hartree Fock one center treatment
   AEXX    =    0.0000 exact exchange contribution

 Linear response parameters
   LEPSILON=     F    determine dielectric tensor
   LRPA    =     F    only Hartree local field effects (RPA)
   LNABLA  =     F    use nabla operator in PAW spheres
   LVEL    =     F    velocity operator in full k-point grid
   LINTERFAST=   F  fast interpolation
   KINTER  =     0    interpolate to denser k-point grid
   CSHIFT  =0.1000    complex shift for real part using Kramers Kronig
   OMEGAMAX=  -1.0    maximum frequency
   DEG_THRESHOLD= 0.2000000E-02 threshold for treating states as degnerate
   RTIME   =   -0.100 relaxation time in fs
  (WPLASMAI=    0.000 imaginary part of plasma frequency in eV, 0.658/RTIME)
   DFIELD  = 0.0000000 0.0000000 0.0000000 field for delta impulse in time
 
 Orbital magnetization related:
   ORBITALMAG=     F  switch on orbital magnetization
   LCHIMAG   =     F  perturbation theory with respect to B field
   DQ        =  0.001000  dq finite difference perturbation B field
   LLRAUG    =     F  two centre corrections for induced B field



--------------------------------------------------------------------------------------------------------


 Static calculation
 charge density and potential remain constant during run
 non-spin polarized calculation
 RMM-DIIS sequential band-by-band and
  variant of blocked Davidson during initial phase
 perform sub-space diagonalisation
    before iterative eigenvector-optimisation
 no mixing
 using additional bands           53
 real space projection scheme for non local part
 use partial core corrections
 calculate Harris-corrections to forces 
   (improved forces if not selfconsistent)
 use gradient corrections 
 WARNING: stress and forces are not correct
  (second derivative of E(xc) not defined)
 use of overlap-Matrix (Vanderbilt PP)
 Fermi weights with tetrahedron method with Bloechl corrections


--------------------------------------------------------------------------------------------------------


  energy-cutoff  :      500.00
  volume of cell :     1664.57
      direct lattice vectors                 reciprocal lattice vectors
     8.813512802  0.000000000  0.000000000     0.113462137 -0.065507406  0.000000000
     4.406756909  7.632725690  0.000000000     0.000000000  0.131014796  0.000000000
     0.000000000  0.000000000 24.744230039     0.000000000  0.000000000  0.040413462

  length of vectors
     8.813512802  8.813512802 24.744230039     0.131014796  0.131014796  0.040413462


 
 k-points in units of 2pi/SCALE and weight: Automatic mesh                          
   0.00000000  0.00000000  0.00000000       0.016
   0.01418277 -0.00818843  0.00000000       0.031
   0.01418277  0.00818842  0.00000000       0.031
   0.00000000  0.01637685  0.00000000       0.031
   0.02836553 -0.01637685  0.00000000       0.031
   0.02836553  0.01637685  0.00000000       0.031
   0.00000000  0.03275370  0.00000000       0.031
   0.04254830 -0.02456528  0.00000000       0.031
   0.04254830  0.02456527  0.00000000       0.031
   0.00000000  0.04913055  0.00000000       0.031
   0.05673107 -0.03275370  0.00000000       0.016
   0.05673107  0.03275370  0.00000000       0.016
   0.00000000  0.06550740  0.00000000       0.016
   0.02836553 -0.00000000  0.00000000       0.031
   0.01418277  0.02456527  0.00000000       0.031
  -0.01418277  0.02456528  0.00000000       0.031
   0.04254830 -0.00818843  0.00000000       0.031
   0.02836553  0.03275370  0.00000000       0.031
  -0.01418277  0.04094212  0.00000000       0.031
   0.02836553 -0.03275370  0.00000000       0.031
  -0.01418277 -0.04094212  0.00000000       0.031
  -0.04254830 -0.00818842  0.00000000       0.031
   0.05673107 -0.01637685  0.00000000       0.031
   0.04254830  0.04094212  0.00000000       0.031
  -0.01418277  0.05731897  0.00000000       0.031
   0.04254830 -0.04094213  0.00000000       0.031
  -0.01418277  0.07369582  0.00000000       0.031
   0.05673107 -0.08188425  0.00000000       0.031
   0.05673107 -0.00000000  0.00000000       0.031
   0.02836553  0.04913055  0.00000000       0.031
  -0.02836553  0.04913055  0.00000000       0.031
  -0.04254830  0.05731898  0.00000000       0.031
   0.04254830 -0.07369583  0.00000000       0.031
  -0.02836553  0.06550740  0.00000000       0.031
 
 k-points in reciprocal lattice and weights: Automatic mesh                          
   0.00000000  0.00000000  0.00000000       0.016
   0.12500000 -0.00000000  0.00000000       0.031
   0.12500000  0.12500000  0.00000000       0.031
   0.00000000  0.12500000  0.00000000       0.031
   0.25000000 -0.00000000  0.00000000       0.031
   0.25000000  0.25000000  0.00000000       0.031
   0.00000000  0.25000000  0.00000000       0.031
   0.37500000  0.00000000  0.00000000       0.031
   0.37500000  0.37500000  0.00000000       0.031
   0.00000000  0.37500000  0.00000000       0.031
   0.50000000 -0.00000000  0.00000000       0.016
   0.50000000  0.50000000  0.00000000       0.016
   0.00000000  0.50000000  0.00000000       0.016
   0.25000000  0.12500000  0.00000000       0.031
   0.12500000  0.25000000  0.00000000       0.031
  -0.12500000  0.12500000  0.00000000       0.031
   0.37500000  0.12500000  0.00000000       0.031
   0.25000000  0.37500000  0.00000000       0.031
  -0.12500000  0.25000000  0.00000000       0.031
   0.25000000 -0.12500000  0.00000000       0.031
  -0.12500000 -0.37500000  0.00000000       0.031
  -0.37500000 -0.25000000  0.00000000       0.031
   0.50000000  0.12500000  0.00000000       0.031
   0.37500000  0.50000000  0.00000000       0.031
  -0.12500000  0.37500000  0.00000000       0.031
   0.37500000 -0.12500000  0.00000000       0.031
  -0.12500000  0.50000000  0.00000000       0.031
   0.50000000 -0.37500000  0.00000000       0.031
   0.50000000  0.25000000  0.00000000       0.031
   0.25000000  0.50000000  0.00000000       0.031
  -0.25000000  0.25000000  0.00000000       0.031
  -0.37500000  0.25000000  0.00000000       0.031
   0.37500000 -0.37500000  0.00000000       0.031
  -0.25000000  0.37500000  0.00000000       0.031
 
 position of ions in fractional coordinates (direct lattice) 
   0.00000000  0.00000000  0.21339843
   0.33333334  0.00000000  0.21339843
   0.66666669  0.00000000  0.21339843
   0.00000000  0.33333334  0.21339843
   0.33333331  0.33333334  0.21339843
   0.66666669  0.33333334  0.21339843
   0.00000000  0.66666669  0.21339843
   0.33333334  0.66666669  0.21339843
   0.66666663  0.66666669  0.21339843
   0.11111112  0.11111111  0.31033958
   0.44444442  0.11111111  0.31033958
   0.77777779  0.11111111  0.31033958
   0.11111113  0.44444445  0.31033958
   0.44444448  0.44444445  0.31033958
   0.77777773  0.44444445  0.31033958
   0.11111109  0.77777779  0.31033958
   0.44444445  0.77777779  0.31033958
   0.77777785  0.77777779  0.31033958
   0.88877996  0.22244009  0.40718394
   0.22298302  0.22298301  0.40662841
   0.55403401  0.22298301  0.40662841
   0.88674228  0.55662889  0.40676286
   0.22298298  0.55403401  0.40662841
   0.55662889  0.55662889  0.40676286
   0.88877996  0.88877996  0.40718394
   0.22244012  0.88877996  0.40718394
   0.55662883  0.88674228  0.40676286
   0.00000000  0.00000000  0.50406952
   0.33399461  0.01063907  0.50603243
   0.65536635  0.01063907  0.50603243
   0.01063907  0.33399461  0.50603243
   0.65536635  0.33399461  0.50603243
   0.01063907  0.65536635  0.50603243
   0.33399461  0.65536635  0.50603243
   0.66666663  0.66666669  0.50518119
   0.33333331  0.33333334  0.49309679
   0.27919044  0.26314806  0.58995521
   0.45778289  0.26357346  0.59001922
   0.33350095  0.33315402  0.58016351
 
 position of ions in cartesian coordinates  (Angst):
   0.00000000  0.00000000  5.28037993
   2.93783769  0.00000000  5.28037993
   5.87567538  0.00000000  5.28037993
   1.46891901  2.54424197  5.28037993
   4.40675643  2.54424197  5.28037993
   7.34459439  2.54424197  5.28037993
   2.93783803  5.08848395  5.28037993
   5.87567571  5.08848395  5.28037993
   8.81351288  5.08848395  5.28037993
   1.46891893  0.84808064  7.67911405
   4.40675623  0.84808064  7.67911405
   7.34459418  0.84808064  7.67911405
   2.93783798  3.39232256  7.67911405
   5.87567574  3.39232256  7.67911405
   8.81351263  3.39232256  7.67911405
   4.40675667  5.93656453  7.67911405
   7.34459449  5.93656453  7.67911405
  10.28243270  5.93656453  7.67911405
   8.81351299  1.69782418 10.07545314
   2.94789566  1.70196815 10.06170683
   5.86561776  1.70196815 10.06170683
  10.26824266  4.24859562 10.06503371
   4.40675655  4.22878963 10.06170683
   7.35878404  4.24859562 10.06503371
  11.74991083  6.78381366 10.07545314
   5.87711608  6.78381366 10.07545314
   8.81351299  6.76826059 10.06503371
   0.00000000  0.00000000 12.47281226
   2.99054955  0.08120511 12.52138294
   5.82296353  0.08120511 12.52138294
   1.56560063  2.54928922 12.52138294
   7.24791277  2.54928922 12.52138294
   2.98180778  5.00223159 12.52138294
   5.83170595  5.00223159 12.52138294
   8.81351288  5.08848395 12.50031969
   4.40675643  2.54424197 12.20130049
   3.62027805  2.00853697 14.59798751
   5.19617947  2.01178390 14.59957119
   4.40744367  2.54287321 14.35569939
 


--------------------------------------------------------------------------------------------------------


 k-point   1 :   0.0000 0.0000 0.0000  plane waves:   42157
 k-point   2 :   0.1250-0.0000 0.0000  plane waves:   42204
 k-point   3 :   0.1250 0.1250 0.0000  plane waves:   42204
 k-point   4 :   0.0000 0.1250 0.0000  plane waves:   42204
 k-point   5 :   0.2500-0.0000 0.0000  plane waves:   42256
 k-point   6 :   0.2500 0.2500 0.0000  plane waves:   42256
 k-point   7 :   0.0000 0.2500 0.0000  plane waves:   42256
 k-point   8 :   0.3750 0.0000 0.0000  plane waves:   42248
 k-point   9 :   0.3750 0.3750 0.0000  plane waves:   42248
 k-point  10 :   0.0000 0.3750 0.0000  plane waves:   42248
 k-point  11 :   0.5000-0.0000 0.0000  plane waves:   42276
 k-point  12 :   0.5000 0.5000 0.0000  plane waves:   42276
 k-point  13 :   0.0000 0.5000 0.0000  plane waves:   42276
 k-point  14 :   0.2500 0.1250 0.0000  plane waves:   42212
 k-point  15 :   0.1250 0.2500 0.0000  plane waves:   42212
 k-point  16 :  -0.1250 0.1250 0.0000  plane waves:   42212
 k-point  17 :   0.3750 0.1250 0.0000  plane waves:   42250
 k-point  18 :   0.2500 0.3750 0.0000  plane waves:   42250
 k-point  19 :  -0.1250 0.2500 0.0000  plane waves:   42250
 k-point  20 :   0.2500-0.1250 0.0000  plane waves:   42250
 k-point  21 :  -0.1250-0.3750 0.0000  plane waves:   42250
 k-point  22 :  -0.3750-0.2500 0.0000  plane waves:   42250
 k-point  23 :   0.5000 0.1250 0.0000  plane waves:   42294
 k-point  24 :   0.3750 0.5000 0.0000  plane waves:   42294
 k-point  25 :  -0.1250 0.3750 0.0000  plane waves:   42294
 k-point  26 :   0.3750-0.1250 0.0000  plane waves:   42294
 k-point  27 :  -0.1250 0.5000 0.0000  plane waves:   42294
 k-point  28 :   0.5000-0.3750 0.0000  plane waves:   42294
 k-point  29 :   0.5000 0.2500 0.0000  plane waves:   42246
 k-point  30 :   0.2500 0.5000 0.0000  plane waves:   42246
 k-point  31 :  -0.2500 0.2500 0.0000  plane waves:   42246
 k-point  32 :  -0.3750 0.2500 0.0000  plane waves:   42274
 k-point  33 :   0.3750-0.3750 0.0000  plane waves:   42274
 k-point  34 :  -0.2500 0.3750 0.0000  plane waves:   42274

 maximum and minimum number of plane-waves per node :     42294    42157

 maximum number of plane-waves:     42294
 maximum index in each direction: 
   IXMAX=   16   IYMAX=   16   IZMAX=   45
   IXMIN=  -16   IYMIN=  -16   IZMIN=  -45


 serial   3D FFT for wavefunctions
 parallel 3D FFT for charge:
    minimum data exchange during FFTs selected (reduces bandwidth)


 total amount of memory used by VASP MPI-rank0   280969. kBytes
=======================================================================

   base      :      30000. kBytes
   nonlr-proj:      14402. kBytes
   fftplans  :       4808. kBytes
   grid      :      20723. kBytes
   one-center:        606. kBytes
   wavefun   :     210430. kBytes
 
     INWAV:  cpu time    0.0000: real time    0.0001
 initial charge density was supplied:
 number of electron     398.0000008 magnetization 
 keeping initial charge density in first step


--------------------------------------------------------------------------------------------------------


 Maximum index for non-local projection operator         2981
 Maximum index for augmentation-charges          848 (set IRDMAX)


--------------------------------------------------------------------------------------------------------


 First call to EWALD:  gamma=   0.150
 Maximum number of real-space cells 4x 4x 2
 Maximum number of reciprocal cells 2x 2x 5

    FEWALD:  cpu time    0.0013: real time    0.0014


--------------------------------------- Iteration      1(   1)  ---------------------------------------


    POTLOK:  cpu time    0.0503: real time    0.0507
    SETDIJ:  cpu time    0.0048: real time    0.0050
     EDDAV:  cpu time   26.5447: real time   26.5473
 BZINTS: Fermi energy:   11.149898;  398.000000 electrons
         Band energy: 0.145343E+04;  BLOECHL correction:   -0.010740
       DOS:  cpu time    0.0615: real time    0.0615
    --------------------------------------------
      LOOP:  cpu time   26.6613: real time   26.6646

 eigenvalue-minimisations  : 17136
 total energy-change (2. order) : 0.2724653E+04  (-0.1746382E+05)
 number of electron     398.0000008 magnetization 
 augmentation part      398.0000008 magnetization 

 Free energy of the ion-electron system (eV)
  ---------------------------------------------------
  alpha Z        PSCENC =       907.67192184
  Ewald energy   TEWEN  =    131970.10199142
  -Hartree energ DENC   =   -165927.65524970
  -exchange      EXHF   =         0.00000000
  -V(xc)+E(xc)   XCENC  =       505.43788503
  PAW double counting   =     35936.77430332   -35162.18840872
  entropy T*S    EENTRO =         0.00000000
  eigenvalues    EBANDS =      1453.42703948
  atomic energy  EATOM  =     33041.08313164
  Solvation  Ediel_sol  =         0.00000000
  ---------------------------------------------------
  free energy    TOTEN  =      2724.65261432 eV

  energy without entropy =     2724.65261432  energy(sigma->0) =     2724.65261432


--------------------------------------------------------------------------------------------------------




--------------------------------------- Iteration      1(   2)  ---------------------------------------


     EDDAV:  cpu time   28.7317: real time   28.7321
 BZINTS: Fermi energy:    1.376069;  398.000000 electrons
         Band energy:-0.122958E+04;  BLOECHL correction:   -0.062762
       DOS:  cpu time    0.0522: real time    0.0522
    --------------------------------------------
      LOOP:  cpu time   28.7839: real time   28.7843

 eigenvalue-minimisations  : 18928
 total energy-change (2. order) :-0.2683010E+04  (-0.2451655E+04)
 number of electron     398.0000008 magnetization 
 augmentation part      398.0000008 magnetization 

 Free energy of the ion-electron system (eV)
  ---------------------------------------------------
  alpha Z        PSCENC =       907.67192184
  Ewald energy   TEWEN  =    131970.10199142
  -Hartree energ DENC   =   -165927.65524970
  -exchange      EXHF   =         0.00000000
  -V(xc)+E(xc)   XCENC  =       505.43788503
  PAW double counting   =     35936.77430332   -35162.18840872
  entropy T*S    EENTRO =         0.00000000
  eigenvalues    EBANDS =     -1229.58273223
  atomic energy  EATOM  =     33041.08313164
  Solvation  Ediel_sol  =         0.00000000
  ---------------------------------------------------
  free energy    TOTEN  =        41.64284260 eV

  energy without entropy =       41.64284260  energy(sigma->0) =       41.64284260


--------------------------------------------------------------------------------------------------------




--------------------------------------- Iteration      1(   3)  ---------------------------------------


     EDDAV:  cpu time   30.2121: real time   30.2124
 BZINTS: Fermi energy:    0.385904;  398.000000 electrons
         Band energy:-0.139621E+04;  BLOECHL correction:   -0.025345
       DOS:  cpu time    0.0578: real time    0.0578
    --------------------------------------------
      LOOP:  cpu time   30.2698: real time   30.2702

 eigenvalue-minimisations  : 20076
 total energy-change (2. order) :-0.1666287E+03  (-0.1597677E+03)
 number of electron     398.0000008 magnetization 
 augmentation part      398.0000008 magnetization 

 Free energy of the ion-electron system (eV)
  ---------------------------------------------------
  alpha Z        PSCENC =       907.67192184
  Ewald energy   TEWEN  =    131970.10199142
  -Hartree energ DENC   =   -165927.65524970
  -exchange      EXHF   =         0.00000000
  -V(xc)+E(xc)   XCENC  =       505.43788503
  PAW double counting   =     35936.77430332   -35162.18840872
  entropy T*S    EENTRO =         0.00000000
  eigenvalues    EBANDS =     -1396.21143865
  atomic energy  EATOM  =     33041.08313164
  Solvation  Ediel_sol  =         0.00000000
  ---------------------------------------------------
  free energy    TOTEN  =      -124.98586382 eV

  energy without entropy =     -124.98586382  energy(sigma->0) =     -124.98586382


--------------------------------------------------------------------------------------------------------




--------------------------------------- Iteration      1(   4)  ---------------------------------------


     EDDAV:  cpu time   28.8318: real time   28.8321
 BZINTS: Fermi energy:    0.360766;  398.000000 electrons
         Band energy:-0.140046E+04;  BLOECHL correction:   -0.025132
       DOS:  cpu time    0.0559: real time    0.0559
    --------------------------------------------
      LOOP:  cpu time   28.8877: real time   28.8880

 eigenvalue-minimisations  : 18956
 total energy-change (2. order) :-0.4253462E+01  (-0.4239826E+01)
 number of electron     398.0000008 magnetization 
 augmentation part      398.0000008 magnetization 

 Free energy of the ion-electron system (eV)
  ---------------------------------------------------
  alpha Z        PSCENC =       907.67192184
  Ewald energy   TEWEN  =    131970.10199142
  -Hartree energ DENC   =   -165927.65524970
  -exchange      EXHF   =         0.00000000
  -V(xc)+E(xc)   XCENC  =       505.43788503
  PAW double counting   =     35936.77430332   -35162.18840872
  entropy T*S    EENTRO =         0.00000000
  eigenvalues    EBANDS =     -1400.46490085
  atomic energy  EATOM  =     33041.08313164
  Solvation  Ediel_sol  =         0.00000000
  ---------------------------------------------------
  free energy    TOTEN  =      -129.23932602 eV

  energy without entropy =     -129.23932602  energy(sigma->0) =     -129.23932602


--------------------------------------------------------------------------------------------------------




--------------------------------------- Iteration      1(   5)  ---------------------------------------


     EDDAV:  cpu time   32.0837: real time   32.0868
 BZINTS: Fermi energy:    0.360166;  398.000000 electrons
         Band energy:-0.140062E+04;  BLOECHL correction:   -0.025185
       DOS:  cpu time    0.0569: real time    0.0569
    --------------------------------------------
      LOOP:  cpu time   32.1406: real time   32.1437

 eigenvalue-minimisations  : 21588
 total energy-change (2. order) :-0.1548446E+00  (-0.1547569E+00)
 number of electron     398.0000008 magnetization 
 augmentation part      398.0000008 magnetization 

 Free energy of the ion-electron system (eV)
  ---------------------------------------------------
  alpha Z        PSCENC =       907.67192184
  Ewald energy   TEWEN  =    131970.10199142
  -Hartree energ DENC   =   -165927.65524970
  -exchange      EXHF   =         0.00000000
  -V(xc)+E(xc)   XCENC  =       505.43788503
  PAW double counting   =     35936.77430332   -35162.18840872
  entropy T*S    EENTRO =         0.00000000
  eigenvalues    EBANDS =     -1400.61974544
  atomic energy  EATOM  =     33041.08313164
  Solvation  Ediel_sol  =         0.00000000
  ---------------------------------------------------
  free energy    TOTEN  =      -129.39417061 eV

  energy without entropy =     -129.39417061  energy(sigma->0) =     -129.39417061


--------------------------------------------------------------------------------------------------------




--------------------------------------- Iteration      1(   6)  ---------------------------------------


    EDDIAG:  cpu time    5.2137: real time    5.2143
  RMM-DIIS:  cpu time   15.3154: real time   15.3155
    ORTHCH:  cpu time    0.9702: real time    0.9702
 BZINTS: Fermi energy:    0.360164;  398.000000 electrons
         Band energy:-0.140062E+04;  BLOECHL correction:   -0.025185
       DOS:  cpu time    0.0583: real time    0.0583
    --------------------------------------------
      LOOP:  cpu time   21.5576: real time   21.5582

 eigenvalue-minimisations  : 17559
 total energy-change (2. order) :-0.4157429E-02  (-0.4157394E-02)
 number of electron     398.0000008 magnetization 
 augmentation part      398.0000008 magnetization 

 Free energy of the ion-electron system (eV)
  ---------------------------------------------------
  alpha Z        PSCENC =       907.67192184
  Ewald energy   TEWEN  =    131970.10199142
  -Hartree energ DENC   =   -165927.65524970
  -exchange      EXHF   =         0.00000000
  -V(xc)+E(xc)   XCENC  =       505.43788503
  PAW double counting   =     35936.77430332   -35162.18840872
  entropy T*S    EENTRO =         0.00000000
  eigenvalues    EBANDS =     -1400.62390287
  atomic energy  EATOM  =     33041.08313164
  Solvation  Ediel_sol  =         0.00000000
  ---------------------------------------------------
  free energy    TOTEN  =      -129.39832804 eV

  energy without entropy =     -129.39832804  energy(sigma->0) =     -129.39832804


--------------------------------------------------------------------------------------------------------




--------------------------------------- Iteration      1(   7)  ---------------------------------------


    EDDIAG:  cpu time    5.2131: real time    5.2132
  RMM-DIIS:  cpu time   22.1354: real time   22.1354
    ORTHCH:  cpu time    0.9708: real time    0.9708
 BZINTS: Fermi energy:    0.360163;  398.000000 electrons
         Band energy:-0.140063E+04;  BLOECHL correction:   -0.025185
       DOS:  cpu time    0.0582: real time    0.0582
    --------------------------------------------
      LOOP:  cpu time   28.3775: real time   28.3777

 eigenvalue-minimisations  : 25472
 total energy-change (2. order) :-0.2377556E-02  (-0.2288557E-02)
 number of electron     398.0000008 magnetization 
 augmentation part      398.0000008 magnetization 

 Free energy of the ion-electron system (eV)
  ---------------------------------------------------
  alpha Z        PSCENC =       907.67192184
  Ewald energy   TEWEN  =    131970.10199142
  -Hartree energ DENC   =   -165927.65524970
  -exchange      EXHF   =         0.00000000
  -V(xc)+E(xc)   XCENC  =       505.43788503
  PAW double counting   =     35936.77430332   -35162.18840872
  entropy T*S    EENTRO =         0.00000000
  eigenvalues    EBANDS =     -1400.62628043
  atomic energy  EATOM  =     33041.08313164
  Solvation  Ediel_sol  =         0.00000000
  ---------------------------------------------------
  free energy    TOTEN  =      -129.40070559 eV

  energy without entropy =     -129.40070559  energy(sigma->0) =     -129.40070559


--------------------------------------------------------------------------------------------------------




--------------------------------------- Iteration      1(   8)  ---------------------------------------


    EDDIAG:  cpu time    5.2155: real time    5.2157
  RMM-DIIS:  cpu time   21.3802: real time   21.3803
    ORTHCH:  cpu time    0.9706: real time    0.9707
 BZINTS: Fermi energy:    0.360163;  398.000000 electrons
         Band energy:-0.140063E+04;  BLOECHL correction:   -0.025185
       DOS:  cpu time    0.0571: real time    0.0571
    --------------------------------------------
      LOOP:  cpu time   27.6234: real time   27.6237

 eigenvalue-minimisations  : 24310
 total energy-change (2. order) :-0.2627461E-03  (-0.2642079E-03)
 number of electron     398.0000008 magnetization 
 augmentation part      398.0000008 magnetization 

 Free energy of the ion-electron system (eV)
  ---------------------------------------------------
  alpha Z        PSCENC =       907.67192184
  Ewald energy   TEWEN  =    131970.10199142
  -Hartree energ DENC   =   -165927.65524970
  -exchange      EXHF   =         0.00000000
  -V(xc)+E(xc)   XCENC  =       505.43788503
  PAW double counting   =     35936.77430332   -35162.18840872
  entropy T*S    EENTRO =         0.00000000
  eigenvalues    EBANDS =     -1400.62654317
  atomic energy  EATOM  =     33041.08313164
  Solvation  Ediel_sol  =         0.00000000
  ---------------------------------------------------
  free energy    TOTEN  =      -129.40096834 eV

  energy without entropy =     -129.40096834  energy(sigma->0) =     -129.40096834


--------------------------------------------------------------------------------------------------------




--------------------------------------- Iteration      1(   9)  ---------------------------------------


    EDDIAG:  cpu time    5.2145: real time    5.2147
  RMM-DIIS:  cpu time   19.4092: real time   19.4092
    ORTHCH:  cpu time    0.9726: real time    0.9726
 BZINTS: Fermi energy:    0.360163;  398.000000 electrons
         Band energy:-0.140063E+04;  BLOECHL correction:   -0.025185
       DOS:  cpu time    0.0583: real time    0.0583
    --------------------------------------------
      LOOP:  cpu time   25.6546: real time   25.6548

 eigenvalue-minimisations  : 20788
 total energy-change (2. order) :-0.3906863E-04  (-0.3937610E-04)
 number of electron     398.0000008 magnetization 
 augmentation part      398.0000008 magnetization 

 Free energy of the ion-electron system (eV)
  ---------------------------------------------------
  alpha Z        PSCENC =       907.67192184
  Ewald energy   TEWEN  =    131970.10199142
  -Hartree energ DENC   =   -165927.65524970
  -exchange      EXHF   =         0.00000000
  -V(xc)+E(xc)   XCENC  =       505.43788503
  PAW double counting   =     35936.77430332   -35162.18840872
  entropy T*S    EENTRO =         0.00000000
  eigenvalues    EBANDS =     -1400.62658224
  atomic energy  EATOM  =     33041.08313164
  Solvation  Ediel_sol  =         0.00000000
  ---------------------------------------------------
  free energy    TOTEN  =      -129.40100741 eV

  energy without entropy =     -129.40100741  energy(sigma->0) =     -129.40100741


--------------------------------------------------------------------------------------------------------




--------------------------------------- Iteration      1(  10)  ---------------------------------------


    EDDIAG:  cpu time    5.2146: real time    5.2149
  RMM-DIIS:  cpu time   13.2775: real time   13.2775
    ORTHCH:  cpu time    0.9707: real time    0.9707
 BZINTS: Fermi energy:    0.360163;  398.000000 electrons
         Band energy:-0.140063E+04;  BLOECHL correction:   -0.025185
       DOS:  cpu time    0.0583: real time    0.0582
    --------------------------------------------
      LOOP:  cpu time   19.5211: real time   19.5213

 eigenvalue-minimisations  : 12873
 total energy-change (2. order) :-0.4906615E-05  (-0.4991635E-05)
 number of electron     398.0000008 magnetization 
 augmentation part      398.0000008 magnetization 

 Free energy of the ion-electron system (eV)
  ---------------------------------------------------
  alpha Z        PSCENC =       907.67192184
  Ewald energy   TEWEN  =    131970.10199142
  -Hartree energ DENC   =   -165927.65524970
  -exchange      EXHF   =         0.00000000
  -V(xc)+E(xc)   XCENC  =       505.43788503
  PAW double counting   =     35936.77430332   -35162.18840872
  entropy T*S    EENTRO =         0.00000000
  eigenvalues    EBANDS =     -1400.62658715
  atomic energy  EATOM  =     33041.08313164
  Solvation  Ediel_sol  =         0.00000000
  ---------------------------------------------------
  free energy    TOTEN  =      -129.40101231 eV

  energy without entropy =     -129.40101231  energy(sigma->0) =     -129.40101231


--------------------------------------------------------------------------------------------------------




 average (electrostatic) potential at core
  the test charge radii are     1.2098  1.2064  0.5201  0.7215
  (the norm of the test charge is              1.0000)
       1 -72.6842       2 -72.6699       3 -72.6699       4 -72.6689       5 -72.6672
       6 -72.6687       7 -72.6714       8 -72.6711       9 -72.6721      10 -73.0174
      11 -72.9719      12 -73.0172      13 -72.9747      14 -72.9744      15 -73.0009
      16 -73.0212      17 -73.0053      18 -73.0054      19 -72.9595      20 -73.2125
      21 -73.2124      22 -72.9707      23 -73.2202      24 -72.9705      25 -72.9601
      26 -72.9601      27 -72.9739      28 -72.6789      29 -72.8088      30 -72.8086
      31 -72.7910      32 -72.7910      33 -72.7481      34 -72.7480      35 -72.6501
      36 -46.4024      37 -40.9728      38 -40.9746      39 -77.5713
 
 
 
 E-fermi :   0.3602     XC(G=0):  -5.5769     alpha+bet : -5.1941

 Fermi energy:         0.3601628715

 k-point     1 :       0.0000    0.0000    0.0000
  band No.  band energies     occupation 
      1     -22.1170      2.00000
      2      -9.9062      2.00000
      3      -8.4590      2.00000
      4      -7.3028      2.00000
      5      -6.7044      2.00000
      6      -6.3368      2.00000
      7      -6.3122      2.00000
      8      -6.3116      2.00000
      9      -6.3085      2.00000
     10      -6.2871      2.00000
     11      -6.2661      2.00000
     12      -6.2642      2.00000
     13      -6.2174      2.00000
     14      -5.8378      2.00000
     15      -5.8355      2.00000
     16      -5.8354      2.00000
     17      -5.7907      2.00000
     18      -5.7754      2.00000
     19      -5.7734      2.00000
     20      -5.4588      2.00000
     21      -5.4541      2.00000
     22      -5.4430      2.00000
     23      -5.4310      2.00000
     24      -5.3963      2.00000
     25      -5.3953      2.00000
     26      -5.3156      2.00000
     27      -5.2652      2.00000
     28      -5.2652      2.00000
     29      -5.2506      2.00000
     30      -5.2394      2.00000
     31      -5.2388      2.00000
     32      -5.1199      2.00000
     33      -5.1072      2.00000
     34      -5.0963      2.00000
     35      -5.0947      2.00000
     36      -5.0905      2.00000
     37      -5.0794      2.00000
     38      -5.0774      2.00000
     39      -5.0682      2.00000
     40      -5.0416      2.00000
     41      -5.0306      2.00000
     42      -4.9803      2.00000
     43      -4.9796      2.00000
     44      -4.7801      2.00000
     45      -4.5923      2.00000
     46      -4.5912      2.00000
     47      -4.5677      2.00000
     48      -4.5573      2.00000
     49      -4.5572      2.00000
     50      -4.5333      2.00000
     51      -4.5319      2.00000
     52      -4.5045      2.00000
     53      -4.4880      2.00000
     54      -4.4772      2.00000
     55      -4.4211      2.00000
     56      -4.4137      2.00000
     57      -4.3733      2.00000
     58      -4.3498      2.00000
     59      -4.0369      2.00000
     60      -4.0243      2.00000
     61      -4.0200      2.00000
     62      -4.0176      2.00000
     63      -4.0001      2.00000
     64      -3.9985      2.00000
     65      -3.9934      2.00000
[...]
  0.000   0.000   0.000   0.000   0.000   0.000   0.000   0.000   0.000   0.000   1.000   0.000   0.000   0.000   0.000   0.000
  0.000   0.000   0.000   0.000   0.000   0.000   0.000   0.000   0.000   0.000   0.000   0.000   0.000   0.000   0.000   0.000
  0.000   0.000   0.000   0.000   0.000   0.000   0.000   0.000   0.000   0.000   0.000   0.000   0.000   0.000   0.000   0.000
  0.000   0.000   0.000   0.000   0.000   0.000   0.000   0.000   0.000   0.000   0.000   0.000   0.000   0.000   0.000   0.000
  0.000   0.000   0.000   0.000   0.000   0.000   0.000   0.000   0.000   0.000   0.000   0.000   0.000   0.000   0.000   0.000
  0.000   0.000   0.000   0.000   0.000   0.000   0.000   0.000   0.000   0.000   0.000   0.000   0.000   0.000   0.000   0.000
  0.000   0.000   0.000   0.000   0.000   0.000   0.000   0.000   0.000   0.000   0.000   0.000   0.000   0.000   0.000   0.000
  0.000   0.000   0.000   0.000   0.000   0.000   0.000   0.000   0.000   0.000   0.000   0.000   0.000   0.000   0.000   0.000


------------------------ aborting loop because EDIFF is reached ----------------------------------------





 total charge

# of ion       s       p       d       tot
------------------------------------------
    1        0.548   0.237   8.767   9.552
    2        0.543   0.241   8.764   9.548
    3        0.543   0.241   8.764   9.548
    4        0.543   0.241   8.765   9.548
    5        0.546   0.241   8.762   9.548
    6        0.543   0.241   8.765   9.548
    7        0.542   0.241   8.765   9.548
    8        0.542   0.241   8.765   9.548
    9        0.543   0.240   8.766   9.549
   10        0.526   0.307   8.768   9.600
   11        0.521   0.306   8.779   9.606
   12        0.526   0.307   8.768   9.600
   13        0.519   0.307   8.779   9.605
   14        0.519   0.307   8.779   9.605
   15        0.516   0.308   8.775   9.599
   16        0.526   0.307   8.768   9.600
   17        0.516   0.308   8.775   9.599
   18        0.516   0.308   8.775   9.599
   19        0.520   0.297   8.772   9.590
   20        0.566   0.335   8.733   9.633
   21        0.566   0.335   8.733   9.633
   22        0.509   0.307   8.776   9.591
   23        0.565   0.334   8.733   9.632
   24        0.509   0.307   8.776   9.591
   25        0.518   0.297   8.773   9.588
   26        0.519   0.297   8.773   9.588
   27        0.511   0.307   8.775   9.592
   28        0.541   0.230   8.752   9.523
   29        0.583   0.248   8.737   9.568
   30        0.583   0.248   8.737   9.568
   31        0.583   0.247   8.738   9.567
   32        0.583   0.247   8.738   9.567
   33        0.577   0.240   8.743   9.559
   34        0.577   0.240   8.743   9.559
   35        0.538   0.228   8.757   9.522
   36        0.395   0.475   3.235   4.104
   37        0.598   0.117   0.000   0.716
   38        0.598   0.117   0.000   0.716
   39        1.568   3.617   0.000   5.185
--------------------------------------------------
tot         22.084  13.995 309.869 345.948
 
    CHARGE:  cpu time    1.2107: real time    1.2109
    FORLOC:  cpu time    0.0125: real time    0.0125
    FORNL :  cpu time    5.3625: real time    5.3627
    STRESS:  cpu time   16.0999: real time   16.1001
    FORCOR:  cpu time    0.0481: real time    0.0481
    FORHAR:  cpu time    0.0197: real time    0.0197
    OFIELD:  cpu time    0.0003: real time    0.0003

  FORCE on cell =-STRESS in cart. coord.  units (eV):
  Direction    XX          YY          ZZ          XY          YZ          ZX
  --------------------------------------------------------------------------------------
  Alpha Z   907.67192   907.67192   907.67192
  Ewald  154450.80490154384.04471************     0.16549   -13.20258     0.10242
  Hartree162836.01176162823.79535************     0.03446     3.24268    -0.02148
  E(xc)   -1784.78952 -1784.88441 -1792.41619     0.00032    -0.02489     0.00104
  Local  ************************329521.04012    -0.15477     2.84902    -0.03298
  n-local   -78.55204   -79.39156   -49.92309     0.00193    -0.13352    -0.00238
  augment  2389.50605  2390.27159  2409.40458    -0.00356     0.36577    -0.00396
  Kinetic  5511.34057  5529.84804  5591.48168    -0.04316     6.77374    -0.04802
  Fock        0.00000     0.00000     0.00000     0.00000     0.00000     0.00000
  -------------------------------------------------------------------------------------
  Total     -22.34534   -22.43437     0.90950     0.00071    -0.12978    -0.00536
  in kB     -21.50774   -21.59344     0.87541     0.00069    -0.12491    -0.00516
  external pressure =      -14.08 kB  Pullay stress =        0.00 kB


 VOLUME and BASIS-vectors are now :
 -----------------------------------------------------------------------------
  energy-cutoff  :      500.00
  volume of cell :     1664.57
      direct lattice vectors                 reciprocal lattice vectors
     8.813512802  0.000000000  0.000000000     0.113462137 -0.065507406  0.000000000
     4.406756909  7.632725690  0.000000000     0.000000000  0.131014796  0.000000000
     0.000000000  0.000000000 24.744230039     0.000000000  0.000000000  0.040413462

  length of vectors
     8.813512802  8.813512802 24.744230039     0.131014796  0.131014796  0.040413462


 FORCES acting on ions
    electron-ion (+dipol)            ewald-force                    non-local-force                 convergence-correction
 -----------------------------------------------------------------------------------------------
   0.182E-02 -.676E-02 0.267E+04   0.995E-04 -.103E-01 -.267E+04   -.279E-04 0.781E-02 -.675E+00   -.193E-02 0.113E-01 -.129E+00
   0.253E+00 -.257E+00 0.267E+04   -.298E+00 0.912E-01 -.267E+04   0.450E-01 0.131E+00 -.229E+00   -.574E-02 0.260E-01 -.143E+00
   -.255E+00 -.268E+00 0.267E+04   0.298E+00 0.911E-01 -.267E+04   -.451E-01 0.131E+00 -.229E+00   0.770E-02 0.369E-01 -.139E+00
   -.972E-01 0.328E+00 0.267E+04   -.608E-01 -.291E+00 -.267E+04   0.130E+00 -.366E-01 -.237E+00   0.170E-01 -.377E-02 -.147E+00
   -.145E-01 -.423E-01 0.267E+04   -.212E-04 0.172E-01 -.267E+04   0.123E-03 -.591E-02 0.974E-01   0.146E-01 0.254E-01 -.102E+00
   0.107E+00 0.324E+00 0.267E+04   0.608E-01 -.292E+00 -.267E+04   -.130E+00 -.365E-01 -.237E+00   -.269E-01 0.597E-03 -.142E+00
   -.373E+00 -.562E-01 0.267E+04   0.237E+00 0.200E+00 -.267E+04   0.956E-01 -.993E-01 -.275E+00   0.333E-01 -.325E-01 -.154E+00
   0.364E+00 -.493E-01 0.267E+04   -.237E+00 0.200E+00 -.267E+04   -.956E-01 -.994E-01 -.275E+00   -.240E-01 -.395E-01 -.153E+00
   0.137E-01 0.353E-01 0.267E+04   0.232E-03 -.660E-02 -.267E+04   -.542E-04 -.142E-02 -.369E+00   -.141E-01 -.260E-01 -.539E-01
   0.184E+01 0.105E+01 0.894E+03   -.136E+01 -.776E+00 -.893E+03   -.335E+00 -.205E+00 -.656E+00   -.117E+00 -.526E-01 -.221E+00
   -.121E-01 0.850E+00 0.896E+03   -.441E-03 -.752E+00 -.896E+03   0.625E-04 -.155E-01 -.152E+00   0.127E-01 -.120E+00 -.197E+00
   -.183E+01 0.104E+01 0.894E+03   0.136E+01 -.777E+00 -.893E+03   0.335E+00 -.205E+00 -.656E+00   0.109E+00 -.448E-01 -.222E+00
   0.749E+00 -.546E+00 0.896E+03   -.653E+00 0.482E+00 -.895E+03   0.875E-04 0.798E-02 -.166E+00   -.122E+00 0.776E-01 -.197E+00
   -.769E+00 -.542E+00 0.896E+03   0.652E+00 0.483E+00 -.895E+03   -.292E-03 0.779E-02 -.166E+00   0.143E+00 0.737E-01 -.200E+00
   0.111E-01 0.327E+01 0.898E+03   0.103E-02 -.343E+01 -.897E+03   -.594E-04 0.174E-01 -.566E+00   -.122E-01 0.936E-01 -.151E+00
   -.118E-02 -.200E+01 0.894E+03   -.606E-04 0.145E+01 -.893E+03   -.151E-03 0.401E+00 -.676E+00   0.142E-02 0.116E+00 -.206E+00
   0.294E+01 -.156E+01 0.898E+03   -.306E+01 0.166E+01 -.897E+03   0.454E-02 -.285E-02 -.581E+00   0.711E-01 -.730E-01 -.139E+00
   -.294E+01 -.157E+01 0.898E+03   0.306E+01 0.166E+01 -.897E+03   -.453E-02 -.271E-02 -.581E+00   -.724E-01 -.615E-01 -.136E+00
   -.195E-03 -.288E+01 -.903E+03   0.502E-02 0.281E+01 0.902E+03   -.506E-04 0.370E-01 0.497E+00   -.481E-02 0.427E-01 0.300E+00
   -.240E+01 -.200E+01 -.893E+03   0.361E+01 0.272E+01 0.894E+03   -.114E+01 -.649E+00 -.119E+01   -.726E-01 -.621E-01 0.353E+00
   0.240E+01 -.200E+01 -.893E+03   -.362E+01 0.271E+01 0.894E+03   0.114E+01 -.649E+00 -.119E+01   0.778E-01 -.592E-01 0.349E+00
   -.813E+01 0.439E+01 -.892E+03   0.798E+01 -.435E+01 0.891E+03   0.337E+00 -.169E+00 0.565E+00   -.162E+00 0.104E+00 0.259E+00
   0.102E-02 0.256E+01 -.895E+03   -.515E-02 -.400E+01 0.895E+03   0.461E-04 0.135E+01 -.110E+01   0.410E-02 0.108E+00 0.364E+00
   0.813E+01 0.439E+01 -.892E+03   -.797E+01 -.434E+01 0.891E+03   -.337E+00 -.169E+00 0.565E+00   0.158E+00 0.102E+00 0.257E+00
   0.202E+01 0.202E+01 -.903E+03   -.196E+01 -.194E+01 0.902E+03   -.180E-01 -.502E-01 0.598E+00   -.405E-01 -.262E-01 0.318E+00
   -.202E+01 0.202E+01 -.903E+03   0.196E+01 -.194E+01 0.902E+03   0.180E-01 -.505E-01 0.597E+00   0.419E-01 -.316E-01 0.320E+00
   0.141E-02 -.847E+01 -.891E+03   -.275E-03 0.832E+01 0.890E+03   0.164E-03 0.371E+00 0.514E+00   -.132E-02 -.188E+00 0.282E+00
   -.934E-02 0.211E+01 -.260E+04   0.909E-02 -.217E+01 0.260E+04   0.109E-03 0.527E-01 0.449E+00   0.105E-03 -.136E-01 0.239E+00
   0.246E+02 0.339E+02 -.259E+04   -.237E+02 -.323E+02 0.259E+04   -.108E+01 -.168E+01 -.643E+00   0.480E-01 -.612E-02 0.226E+00
   -.246E+02 0.339E+02 -.259E+04   0.237E+02 -.324E+02 0.259E+04   0.108E+01 -.167E+01 -.641E+00   -.477E-01 0.261E-03 0.225E+00
   0.380E+02 0.102E+01 -.259E+04   -.361E+02 -.921E+00 0.260E+04   -.204E+01 -.121E+00 -.639E+00   0.196E-01 0.281E-01 0.229E+00
   -.381E+02 0.102E+01 -.259E+04   0.362E+02 -.926E+00 0.260E+04   0.204E+01 -.121E+00 -.639E+00   -.228E-01 0.321E-01 0.228E+00
   0.115E+02 -.317E+02 -.260E+04   -.108E+02 0.302E+02 0.260E+04   -.797E+00 0.165E+01 -.143E+00   0.260E-02 -.247E-01 0.230E+00
   -.115E+02 -.317E+02 -.260E+04   0.108E+02 0.303E+02 0.260E+04   0.797E+00 0.165E+01 -.143E+00   0.502E-02 -.265E-01 0.229E+00
   -.904E-03 0.124E+01 -.262E+04   0.132E-01 -.125E+01 0.262E+04   -.133E-03 -.193E-02 0.586E+00   -.123E-01 0.117E-01 0.186E+00
   0.316E-01 -.396E+01 -.104E+04   -.321E-01 0.402E+01 0.104E+04   -.361E-03 -.663E-01 0.667E+00   0.224E-02 -.272E-02 0.174E+00
   0.663E+02 0.414E+02 -.291E+03   -.730E+02 -.457E+02 0.293E+03   0.672E+01 0.427E+01 -.198E+01   -.836E-02 -.692E-02 -.161E-02
   -.664E+02 0.412E+02 -.291E+03   0.731E+02 -.454E+02 0.293E+03   -.673E+01 0.424E+01 -.199E+01   0.858E-02 -.680E-02 -.171E-02
   0.112E+00 -.551E+02 -.162E+04   -.190E+00 0.966E+02 0.161E+04   0.752E-01 -.415E+02 0.822E+01   0.920E-03 0.601E-03 -.135E-02
 -----------------------------------------------------------------------------------------------
   -.649E-01 0.333E+02 0.219E+01   0.849E-13 -.313E-12 0.159E-11   0.578E-01 -.333E+02 -.367E+01   0.991E-02 -.169E-01 0.193E+01
 
 
 POSITION                                       TOTAL-FORCE (eV/Angst)
 -----------------------------------------------------------------------------------
      0.00000      0.00000      5.28038        -0.000106      0.002002     -0.101394
      2.93784      0.00000      5.28038        -0.005654     -0.008426     -0.004359
      5.87568      0.00000      5.28038         0.005539     -0.008397     -0.004285
      1.46892      2.54424      5.28038        -0.011512     -0.003544     -0.001936
      4.40676      2.54424      5.28038         0.000123     -0.005609     -0.012855
      7.34459      2.54424      5.28038         0.011368     -0.003575     -0.001757
      2.93784      5.08848      5.28038        -0.007199      0.012066      0.000200
      5.87568      5.08848      5.28038         0.007082      0.012071      0.000331
      8.81351      5.08848      5.28038        -0.000269      0.001264     -0.025016
      1.46892      0.84808      7.67911         0.028278      0.015701      0.081969
      4.40676      0.84808      7.67911         0.000164     -0.037483      0.007616
      7.34459      0.84808      7.67911        -0.028419      0.015777      0.081988
      2.93784      3.39232      7.67911        -0.025755      0.021829      0.007212
      5.87568      3.39232      7.67911         0.026079      0.021860      0.007134
      8.81351      3.39232      7.67911        -0.000164     -0.055804      0.060843
      4.40676      5.93656      7.67911        -0.000043     -0.029975      0.071706
      7.34459      5.93656      7.67911        -0.047971      0.028392      0.063114
     10.28243      5.93656      7.67911         0.047799      0.028485      0.063150
      8.81351      1.69782     10.07545        -0.000105      0.004653     -0.014444
      2.94790      1.70197     10.06171        -0.004369      0.005053     -0.033364
      5.86562      1.70197     10.06171         0.004189      0.005091     -0.033331
     10.26824      4.24860     10.06503         0.027697     -0.021107      0.015190
      4.40676      4.22879     10.06171        -0.000052      0.020272      0.008232
      7.35878      4.24860     10.06503        -0.027825     -0.021055      0.015113
     11.74991      6.78381     10.07545         0.000825      0.003137     -0.018716
      5.87712      6.78381     10.07545        -0.000891      0.003019     -0.018641
      8.81351      6.76826     10.06503        -0.000089      0.035037      0.003529
      0.00000      0.00000     12.47281        -0.000115     -0.016900     -0.009891
      2.99055      0.08121     12.52138        -0.094557     -0.142320     -0.113818
      5.82296      0.08121     12.52138         0.094525     -0.142973     -0.114421
      1.56560      2.54929     12.52138        -0.139308      0.002482     -0.112539
      7.24791      2.54929     12.52138         0.139889      0.002700     -0.112977
      2.98181      5.00223     12.52138        -0.095891      0.134381     -0.163383
      5.83171      5.00223     12.52138         0.095854      0.134410     -0.163530
      8.81351      5.08848     12.50032        -0.000273     -0.000387      0.047298
      4.40676      2.54424     12.20130         0.001328     -0.003278      0.535727
      3.62028      2.00854     14.59799        -0.002062      0.000421     -0.000891
      5.19618      2.01178     14.59957         0.004368     -0.001146     -0.002806
      4.40744      2.54287     14.35570        -0.002484     -0.008122     -0.005997
 -----------------------------------------------------------------------------------
    total drift:                                0.002747      0.001097      0.454536


--------------------------------------------------------------------------------------------------------



  FREE ENERGIE OF THE ION-ELECTRON SYSTEM (eV)
  ---------------------------------------------------
  free  energy   TOTEN  =      -129.40101231 eV

  energy  without entropy=     -129.40101231  energy(sigma->0) =     -129.40101231
 


--------------------------------------------------------------------------------------------------------


    POTLOK:  cpu time    0.0499: real time    0.0499


--------------------------------------------------------------------------------------------------------


 stress matrix after NEB project (eV)
    -22.34534      0.00071     -0.00536
      0.00071    -22.43437     -0.12978
     -0.00536     -0.12978      0.90950
  FORCES: max atom, RMS     0.010397    0.001905
  FORCE total and by dimension    0.011899    0.008122
  Stress total and by dimension   31.677690   22.434373
     LOOP+:  cpu time  292.3990: real time  292.4130
 -----------------------------------------------------------------------------
|                                                                             |
|           W    W    AA    RRRRR   N    N  II  N    N   GGGG   !!!           |
|           W    W   A  A   R    R  NN   N  II  NN   N  G    G  !!!           |
|           W    W  A    A  R    R  N N  N  II  N N  N  G       !!!           |
|           W WW W  AAAAAA  RRRRR   N  N N  II  N  N N  G  GGG   !            |
|           WW  WW  A    A  R   R   N   NN  II  N   NN  G    G                |
|           W    W  A    A  R    R  N    N  II  N    N   GGGG   !!!           |
|                                                                             |
|     Tetrahedron method does not include variations of the Fermi             |
|     occupations, so forces and stress will be inaccurate. We suggest        |
|     using a different smearing scheme ISMEAR = 1 or 2 for metals in         |
|     relaxations.                                                            |
|                                                                             |
 -----------------------------------------------------------------------------

    4ORBIT:  cpu time    0.0000: real time    0.0000



 total charge

# of ion       s       p       d       tot
------------------------------------------
    1        0.548   0.237   8.767   9.552
    2        0.543   0.241   8.764   9.548
    3        0.543   0.241   8.764   9.548
    4        0.543   0.241   8.765   9.548
    5        0.546   0.241   8.762   9.548
    6        0.543   0.241   8.765   9.548
    7        0.542   0.241   8.765   9.548
    8        0.542   0.241   8.765   9.548
    9        0.543   0.240   8.766   9.549
   10        0.526   0.307   8.768   9.600
   11        0.521   0.306   8.779   9.606
   12        0.526   0.307   8.768   9.600
   13        0.519   0.307   8.779   9.605
   14        0.519   0.307   8.779   9.605
   15        0.516   0.308   8.775   9.599
   16        0.526   0.307   8.768   9.600
   17        0.516   0.308   8.775   9.599
   18        0.516   0.308   8.775   9.599
   19        0.520   0.297   8.772   9.590
   20        0.566   0.335   8.733   9.633
   21        0.566   0.335   8.733   9.633
   22        0.509   0.307   8.776   9.591
   23        0.565   0.334   8.733   9.632
   24        0.509   0.307   8.776   9.591
   25        0.518   0.297   8.773   9.588
   26        0.519   0.297   8.773   9.588
   27        0.511   0.307   8.775   9.592
   28        0.541   0.230   8.752   9.523
   29        0.583   0.248   8.737   9.568
   30        0.583   0.248   8.737   9.568
   31        0.583   0.247   8.738   9.567
   32        0.583   0.247   8.738   9.567
   33        0.577   0.240   8.743   9.559
   34        0.577   0.240   8.743   9.559
   35        0.538   0.228   8.757   9.522
   36        0.395   0.475   3.235   4.104
   37        0.598   0.117   0.000   0.716
   38        0.598   0.117   0.000   0.716
   39        1.568   3.617   0.000   5.185
--------------------------------------------------
tot         22.084  13.995 309.869 345.948
 
 BZINTS: Fermi energy:    0.360163;  398.000000 electrons
         Band energy:-0.140063E+04;  BLOECHL correction:   -0.025185

 total amount of memory used by VASP MPI-rank0   280969. kBytes
=======================================================================

   base      :      30000. kBytes
   nonlr-proj:      14402. kBytes
   fftplans  :       4808. kBytes
   grid      :      20723. kBytes
   one-center:        606. kBytes
   wavefun   :     210430. kBytes
 
  
  
 General timing and accounting informations for this job:
 ========================================================
  
                  Total CPU time used (sec):      315.771
                            User time (sec):      305.486
                          System time (sec):       10.285
                         Elapsed time (sec):      316.279
  
                   Maximum memory used (kb):      581952.
                   Average memory used (kb):          N/A
  
                          Minor page faults:       125161
                          Major page faults:            0
                 Voluntary context switches:         7851
